ITEM: TIMESTEP
0
ITEM: NUMBER OF ATOMS
108
ITEM: BOX BOUNDS pp pp pp
0.0000000000000000e+00 8.8499999999999996e+00
0.0000000000000000e+00 1.5328649000000000e+01
0.0000000000000000e+00 1.4058000000000000e+01
ITEM: ATOMS id x y z vx vy vz fx fy fz c_apE 
1 0 1.70318 1.1715 2.61576 3.52507 3.39615 0 -3.54439e-14 -7.77156e-16 -5.24645 
2 4.425 9.36751 1.1715 -3.70562 -2.42251 0.623723 -8.32667e-17 4.80822e-15 1.88868e-16 -5.24645 
3 0 1.70318 5.8575 1.65106 -2.25466 -0.247386 -6.66134e-16 -3.66651e-14 -3.33067e-16 -5.24645 
4 4.425 9.36751 5.8575 -1.23527 1.16712 -1.52393 -8.74301e-16 6.07435e-15 2.13588e-16 -5.24645 
5 0 1.70318 10.5435 1.10502 -0.953228 -1.95517 9.99201e-16 -2.70894e-14 -2.77556e-17 -5.24645 
6 4.425 9.36751 10.5435 -1.16868 -0.018669 2.67732 -1.15186e-15 4.72994e-15 -4.98733e-18 -5.24645 
7 7.375 4.25796 1.1715 -1.79868 -0.0352178 7.04663 -1.04083e-15 1.04361e-14 -1.94289e-16 -5.24645 
8 2.95 11.9223 1.1715 -3.9688 -0.90047 2.1432 -1.77636e-15 -3.31245e-14 -7.4051e-17 -5.24645 
9 7.375 4.25796 5.8575 -1.33605 2.71531 0.0218423 3.2474e-15 1.20182e-14 -1.38778e-17 -5.24645 
10 2.95 11.9223 5.8575 -1.19979 2.5887 0.341647 1.30451e-15 -3.22685e-14 -1.02023e-16 -5.24645 
11 7.375 4.25796 10.5435 -2.59134 2.96278 1.62826 -2.42861e-15 9.9365e-15 -9.02056e-16 -5.24645 
12 2.95 11.9223 10.5435 -3.12068 -0.0426303 1.33216 1.66533e-16 -3.19701e-14 -1.61004e-16 -5.24645 
13 5.9 6.81273 1.1715 2.68992 -1.54118 1.28614 1.85962e-15 -3.1454e-14 -6.10623e-16 -5.24645 
14 1.475 14.4771 1.1715 -1.98858 0.456091 -0.478828 1.34615e-15 9.62425e-15 -1.80411e-16 -5.24645 
15 5.9 6.81273 5.8575 2.11502 1.74136 -1.70335 1.13798e-15 -3.18565e-14 4.30211e-16 -5.24645 
16 1.475 14.4771 5.8575 3.07187 3.22386 2.68181 -6.52256e-16 9.98507e-15 -4.71845e-16 -5.24645 
17 5.9 6.81273 10.5435 -1.70051 -1.69636 -2.65755 2.96985e-15 -3.18773e-14 5.68989e-16 -5.24645 
18 1.475 14.4771 10.5435 -3.3073 -1.12252 -2.52463 -1.44329e-15 1.32533e-15 -1.249e-16 -5.24645 
19 2.95 1.70318 1.1715 1.3687 1.37225 1.28585 3.88578e-16 -3.51065e-14 8.38088e-17 -5.24645 
20 7.375 9.36751 1.1715 -2.7744 -0.212783 -0.426464 -2.17187e-15 5.09315e-15 -6.93889e-17 -5.24645 
21 2.95 1.70318 5.8575 -5.32738 2.88573 -1.03065 -4.996e-16 -3.51602e-14 3.19189e-16 -5.24645 
22 7.375 9.36751 5.8575 1.70243 0.0195405 -3.36118 2.6229e-15 5.59275e-15 2.35922e-16 -5.24645 
23 2.95 1.70318 10.5435 1.18275 -1.97644 -1.35027 1.11022e-16 -2.59844e-14 2.70617e-16 -5.24645 
24 7.375 9.36751 10.5435 -1.52333 0.271247 1.48496 -1.61676e-15 1.20737e-15 2.35922e-16 -5.24645 
25 1.475 4.25796 1.1715 1.32709 5.02178 -0.326486 1.20043e-15 7.50788e-15 -1.80411e-16 -5.24645 
26 5.9 11.9223 1.1715 0.250521 4.81631 1.61135 1.88738e-15 -3.33622e-14 9.4369e-16 -5.24645 
27 1.475 4.25796 5.8575 -1.59045 -0.766079 1.04677 -8.32667e-17 6.97359e-15 2.08167e-16 -5.24645 
28 5.9 11.9223 5.8575 4.49671 -1.31817 0.0120632 8.04912e-16 -3.28695e-14 1.30451e-15 -5.24645 
29 1.475 4.25796 10.5435 1.07054 -0.758399 1.80574 9.4022e-16 6.54338e-15 9.71445e-17 -5.24645 
30 5.9 11.9223 10.5435 0.798837 -1.94326 0.655869 1.11022e-16 -2.34049e-14 -7.35523e-16 -5.24645 
31 3.87606e-17 6.81273 1.1715 0.891439 1.33773 -1.86946 -5.55112e-16 -3.13638e-14 -4.996e-16 -5.24645 
32 4.425 14.4771 1.1715 -0.745072 -0.478234 -1.52683 5.55112e-17 1.09751e-14 -2.09251e-16 -5.24645 
33 3.30185e-16 6.81273 5.8575 -0.823054 1.86484 0.310609 -1.88738e-15 -3.07809e-14 7.49401e-16 -5.24645 
34 4.425 14.4771 5.8575 1.26783 0.530866 -1.53705 -1.249e-15 9.37835e-15 -5.42752e-16 -5.24645 
35 2.33563e-16 6.81273 10.5435 -0.841776 0.357288 -0.722471 -1.11022e-15 -3.12528e-14 -2.77556e-17 -5.24645 
36 4.425 14.4771 10.5435 1.61449 -2.09703 -0.534229 3.19189e-16 1.46107e-15 2.34405e-16 -5.24645 
37 5.9 1.70318 1.1715 3.17474 0.822708 2.74533 3.05311e-16 -3.87468e-14 -2.77556e-16 -5.24645 
38 1.475 9.36751 1.1715 3.61078 -4.25979 2.05121 1.19349e-15 6.38378e-15 4.16334e-17 -5.24645 
39 5.9 1.70318 5.8575 2.46919 -3.23543 4.13885 -1.11022e-16 -3.75672e-14 -3.46945e-16 -5.24645 
40 1.475 9.36751 5.8575 -0.723669 -1.43928 -2.44771 -2.15973e-15 4.996e-15 4.57967e-16 -5.24645 
41 5.9 1.70318 10.5435 -0.467422 -2.70524 -4.66729 -4.16334e-16 -2.59237e-14 7.63278e-16 -5.24645 
42 1.475 9.36751 10.5435 2.1832 -0.446292 -2.40776 2.24647e-15 3.25434e-15 -2.35922e-16 -5.24645 
43 4.425 4.25796 1.1715 -1.56601 -2.78601 -1.02083 -8.74301e-16 8.07319e-15 -2.87097e-16 -5.24645 
44 0 11.9223 1.1715 3.35138 -3.12949 -0.347801 -5.55112e-16 -3.33067e-14 -4.71845e-16 -5.24645 
45 4.425 4.25796 5.8575 -0.992022 2.2528 -4.11582 -1.26288e-15 7.97886e-15 1.15728e-15 -5.24645 
46 0 11.9223 5.8575 2.27247 0.966957 3.77132 -2.22045e-16 -3.26406e-14 2.77556e-17 -5.24645 
47 4.425 4.25796 10.5435 0.929856 -0.172809 -0.120422 4.30211e-16 5.1196e-15 -4.2826e-16 -5.24645 
48 0 11.9223 10.5435 2.53694 -1.77175 3.15445 -8.88178e-16 -2.29816e-14 -2.498e-16 -5.24645 
49 2.95 6.81273 1.1715 -2.09226 -2.09102 -0.835619 8.32667e-16 -3.12944e-14 -3.3285e-16 -5.24645 
50 7.375 14.4771 1.1715 0.395401 -0.929928 1.42168 -2.09555e-15 1.02973e-14 8.46545e-16 -5.24645 
51 2.95 6.81273 5.8575 1.1501 -3.96314 -0.272098 1.41553e-15 -3.0905e-14 3.38488e-16 -5.24645 
52 7.375 14.4771 5.8575 -3.6603 3.56824 1.42761 2.81719e-15 1.01863e-14 -4.30211e-16 -5.24645 
53 2.95 6.81273 10.5435 1.97176 -2.75646 2.24948 -1.7486e-15 -3.05658e-14 -4.23056e-16 -5.24645 
54 7.375 14.4771 10.5435 -3.23769 -1.36163 -1.31393 2.51188e-15 -1.16573e-15 -9.71445e-17 -5.24645 
55 1.475 0.851592 3.5145 -2.28416 -4.97732 2.82083 -1.60982e-15 -7.86871e-15 1.08247e-15 -5.24645 
56 5.9 8.51592 3.5145 -2.44881 0.258104 -1.65079 7.00828e-16 3.26614e-14 -2.01228e-15 -5.24645 
57 1.475 0.851592 8.2005 2.69084 -3.36668 -5.45942 -2.19269e-15 -5.73153e-15 3.88578e-16 -5.24645 
58 5.9 8.51592 8.2005 1.09298 1.05884 -3.71069 2.26902e-15 3.19259e-14 5.6205e-16 -5.24645 
59 1.475 0.851592 12.8865 0.392509 5.30134 0.466625 -8.60423e-16 -7.27196e-15 4.44089e-16 -5.24645 
60 5.9 8.51592 12.8865 -0.788318 -0.549585 -1.26722 1.63064e-15 3.05589e-14 2.35922e-16 -5.24645 
61 0 3.40637 3.5145 -0.667393 0.378909 2.59523 2.77556e-16 3.29459e-14 2.77556e-16 -5.24645 
62 4.425 11.0707 3.5145 2.78963 -0.487528 -2.56281 -1.66533e-16 -8.27398e-15 -6.5269e-17 -5.24645 
63 0 3.40637 8.2005 -1.29518 0.042586 1.22393 1.16573e-15 3.2585e-14 4.16334e-16 -5.24645 
64 4.425 11.0707 8.2005 -1.49427 -1.98521 0.608163 9.4369e-16 -4.64754e-15 -2.06649e-16 -5.24645 
65 0 3.40637 12.8865 -2.5186 1.86457 -2.51733 5.55112e-16 3.15165e-14 4.16334e-17 -5.24645 
66 4.425 11.0707 12.8865 2.34951 2.2268 0.316118 -1.45717e-15 -8.12479e-15 2.11419e-16 -5.24645 
67 7.375 5.96114 3.5145 0.628749 -2.19948 1.81963 -1.6237e-15 -8.95117e-15 9.71445e-16 -5.24645 
68 2.95 13.6255 3.5145 0.989854 -1.16741 -2.13288 -1.66533e-15 3.35183e-14 -7.97973e-17 -5.24645 
69 7.375 5.96114 8.2005 0.0306276 -4.58889 0.277875 -1.20737e-15 -9.11771e-15 -2.22045e-16 -5.24645 
70 2.95 13.6255 8.2005 -0.802067 1.72185 -4.37285 9.29812e-16 3.182e-14 -5.06539e-16 -5.24645 
71 7.375 5.96114 12.8865 -1.15587 -1.1969 -0.765877 -2.34535e-15 -5.00988e-15 -5.27356e-16 -5.24645 
72 2.95 13.6255 12.8865 3.52924 3.61038 -0.481621 -1.83187e-15 3.27915e-14 8.22259e-16 -5.24645 
73 4.425 0.851592 3.5145 -2.30855 -1.00825 -1.53334 3.747e-16 -6.60073e-15 -5.01444e-16 -5.24645 
74 0 8.51592 3.5145 -0.752565 1.67236 2.00905 -4.44089e-16 3.15754e-14 6.10623e-16 -5.24645 
75 4.425 0.851592 8.2005 -1.00057 -6.62792 1.26957 -1.15186e-15 -5.69531e-15 -3.58437e-16 -5.24645 
76 7.53617e-18 8.51592 8.2005 1.46523 -0.472809 -1.32249 6.66134e-16 3.10203e-14 -7.21645e-16 -5.24645 
77 4.425 0.851592 12.8865 0.851878 3.47857 1.90798 5.13478e-16 -6.91081e-15 1.16638e-15 -5.24645 
78 5.0256e-17 8.51592 12.8865 -0.800064 0.633051 -1.52297 -5.55112e-16 3.16865e-14 1.38778e-16 -5.24645 
79 2.95 3.40637 3.5145 0.719821 3.67244 0.844813 3.05311e-16 3.33605e-14 -3.66027e-16 -5.24645 
80 7.375 11.0707 3.5145 -2.67051 4.19869 -1.28462 -2.1233e-15 -7.02216e-15 1.94289e-16 -5.24645 
81 2.95 3.40637 8.2005 3.71039 0.55029 -3.03186 -5.68989e-16 3.34229e-14 6.40113e-16 -5.24645 
82 7.375 11.0707 8.2005 -0.728586 -0.715872 -1.02946 -3.21965e-15 -5.13478e-15 -1.08247e-15 -5.24645 
83 2.95 3.40637 12.8865 0.775278 -2.21885 -0.240002 6.80012e-16 3.3076e-14 -5.58581e-16 -5.24645 
84 7.375 11.0707 12.8865 -2.10525 -1.11149 2.61248 2.26208e-15 -7.16094e-15 9.4369e-16 -5.24645 
85 1.475 5.96114 3.5145 0.565212 0.852536 0.729432 -8.60423e-16 -8.34055e-15 -1.11022e-16 -5.24645 
86 5.9 13.6255 3.5145 0.988722 -0.470368 -4.78018 2.11636e-15 3.38965e-14 -6.38378e-16 -5.24645 
87 1.475 5.96114 8.2005 -0.482879 0.882108 0.318037 6.21898e-16 -5.55112e-15 1.38778e-16 -5.24645 
88 5.9 13.6255 8.2005 2.71023 -1.36842 0.734314 1.02696e-15 2.26347e-14 2.98372e-16 -5.24645 
89 1.475 5.96114 12.8865 1.44766 -2.03989 -0.776726 -8.11851e-16 -8.38218e-15 4.996e-16 -5.24645 
90 5.9 13.6255 12.8865 1.16034 1.3771 2.42514 1.73472e-15 3.34871e-14 -4.44089e-16 -5.24645 
91 7.375 0.851592 3.5145 7.88917 -1.71292 -1.57166 1.1241e-15 -7.27196e-15 4.996e-16 -5.24645 
92 2.95 8.51592 3.5145 -1.79138 -0.312029 -0.963589 9.29812e-16 3.21097e-14 -2.86229e-16 -5.24645 
93 7.375 0.851592 8.2005 1.27002 2.16488 3.74285 3.57353e-15 -6.91114e-15 -1.38778e-16 -5.24645 
94 2.95 8.51592 8.2005 1.21262 1.00031 3.10918 -2.33147e-15 3.13794e-14 1.9082e-17 -5.24645 
95 7.375 0.851592 12.8865 1.20707 -1.4177 -4.19854 -1.70697e-15 -6.39766e-15 1.249e-15 -5.24645 
96 2.95 8.51592 12.8865 -1.39877 2.4572 4.06273 6.38378e-16 3.20438e-14 2.35922e-16 -5.24645 
97 5.9 3.40637 3.5145 -7.0127 0.62761 1.0014 1.38778e-17 3.27585e-14 -1.1588e-15 -5.24645 
98 1.475 11.0707 3.5145 3.60852 -0.059547 -2.06863 7.35523e-16 -6.52256e-15 -8.32667e-17 -5.24645 
99 5.9 3.40637 8.2005 0.177924 -2.53029 0.586886 -3.51802e-15 3.55063e-14 1.08941e-15 -5.24645 
100 1.475 11.0707 8.2005 2.88166 0.34103 1.01703 5.13261e-16 -8.14626e-15 -2.498e-16 -5.24645 
101 5.9 3.40637 12.8865 -1.14537 -0.694192 1.41367 3.747e-16 3.35149e-14 -4.85723e-16 -5.24645 
102 1.475 11.0707 12.8865 -0.0899694 -4.0065 -0.414039 -4.85939e-16 -6.52256e-15 2.22045e-16 -5.24645 
103 4.425 5.96114 3.5145 -0.329286 2.56698 -1.21095 8.88178e-16 -8.51999e-15 -2.00035e-16 -5.24645 
104 0 13.6255 3.5145 -2.56953 4.60704 -2.28926 -5.55112e-16 3.52461e-14 1.38778e-16 -5.24645 
105 4.425 5.96114 8.2005 -2.01414 2.12361 1.54433 8.74301e-16 -9.92067e-15 4.16117e-16 -5.24645 
106 0 13.6255 8.2005 -3.02552 2.05965 0.377895 -6.10623e-16 3.36935e-14 8.04912e-16 -5.24645 
107 4.425 5.96114 12.8865 -3.407 2.19093 -2.32849 1.06859e-15 -8.61626e-15 -1.14709e-16 -5.24645 
108 0 13.6255 12.8865 0.171959 0.483799 4.62626 -1.66533e-16 3.23352e-14 -1.4988e-15 -5.24645 
ITEM: TIMESTEP
100
ITEM: NUMBER OF ATOMS
108
ITEM: BOX BOUNDS pp pp pp
0.0000000000000000e+00 8.8499999999999996e+00
0.0000000000000000e+00 1.5328649000000000e+01
0.0000000000000000e+00 1.4058000000000000e+01
ITEM: ATOMS id x y z vx vy vz fx fy fz c_apE 
1 0.108514 1.85529 1.14067 -1.19367 -3.00872 -2.35744 -0.216555 -0.472559 0.394743 -5.19145 
2 4.43569 9.37329 1.10509 1.02789 1.43756 -0.699787 -0.549244 -0.209995 0.26355 -5.24352 
3 8.76714 1.77323 5.94202 -0.244023 0.671982 1.42945 0.731016 -0.486462 -0.187182 -5.25227 
4 4.40653 9.40951 5.81001 2.25426 -0.56439 0.925544 0.262342 -0.075885 0.0867794 -5.18567 
5 0.0440089 1.71106 10.5 -1.52751 -0.194891 1.82887 -0.21752 -0.267146 0.187685 -5.19743 
6 4.43128 9.34976 10.594 0.751515 -0.195189 -2.40775 -0.137581 0.0134471 -0.138934 -5.26041 
7 7.36983 4.2782 1.29217 0.604677 -0.07156 -5.05083 -0.146108 -0.108125 -0.0737577 -5.20953 
8 2.92235 11.9393 1.09833 3.48707 0.0837997 -2.17474 -0.0361012 -0.17519 0.363867 -5.24128 
9 7.29265 4.23856 5.87245 0.952256 -1.09996 0.721914 0.303511 0.486057 0.0465234 -5.19389 
10 3.0833 11.9107 5.77573 2.5462 -2.33106 -0.22334 -0.338793 0.104813 0.370836 -5.18752 
11 7.34179 4.20004 10.5342 1.81383 -3.10039 -2.57125 -0.0640791 0.25942 -0.141456 -5.29337 
12 2.95915 11.9402 10.5912 2.65539 -1.67027 -0.683832 -0.188509 -0.403976 -0.123398 -5.23314 
13 5.87463 6.73152 1.13406 -3.35335 1.14076 -0.953122 -0.0223512 0.327622 0.233496 -5.14653 
14 1.48393 14.5696 1.10159 1.09971 0.609031 1.31354 -0.106565 -0.251607 0.463565 -5.21081 
15 5.87612 6.9081 5.87311 -1.69738 -0.329401 1.25031 0.226889 -0.17036 -0.175363 -5.24843 
16 1.45331 14.4182 5.8048 -2.09833 -0.708255 -1.50807 0.392976 0.633432 0.42998 -5.2614 
17 5.89373 6.84198 10.4342 0.923738 0.498768 2.11819 -0.162055 -0.377591 0.384638 -5.24278 
18 1.43977 14.467 10.5642 2.67498 1.17697 1.45576 0.0189697 -0.0209876 -0.28646 -5.23694 
19 2.96932 1.75929 1.29977 -0.0978317 0.306359 -0.897252 0.144627 0.066615 -0.572774 -5.20862 
20 7.32807 9.3667 1.17835 1.8806 0.0021613 -0.0531459 -0.02141 -0.0388786 -0.123696 -5.17419 
21 3.06613 1.77515 5.80867 3.10441 -3.74716 0.825348 -1.00123 -0.298663 0.188611 -5.22449 
22 7.40404 9.48191 5.7419 -1.06868 1.18645 3.13367 0.0207727 -0.369737 0.399658 -5.2621 
23 2.98019 1.59959 10.4469 -0.264251 0.303474 0.659867 0.0421403 0.150961 0.292056 -5.21303 
24 7.37464 9.32252 10.5305 1.38705 -0.542769 -0.688667 -0.0484299 0.117801 0.243786 -5.20604 
25 1.37681 4.3165 1.14898 -1.02327 -3.50111 0.310034 0.464505 0.0253025 0.127108 -5.21315 
26 5.85589 11.9127 1.15025 -0.00654211 -2.35153 -1.17954 0.209981 0.551979 0.168756 -5.24099 
27 1.38244 4.3229 5.96077 1.90313 1.40733 0.144463 0.471403 -0.167639 -0.268111 -5.23542 
28 5.92644 11.9308 5.80688 -3.27488 0.979945 -0.615535 0.160351 -0.0382721 0.122665 -5.22504 
29 1.47403 4.18518 10.4638 -0.890582 0.166259 -1.8416 0.0356633 0.183962 0.39312 -5.21115 
30 5.88465 11.8127 10.6028 -0.889232 0.466599 0.559031 0.0683788 0.20918 -0.0473457 -5.22719 
31 8.74772 6.8347 1.15866 -0.119993 -1.14871 1.73171 0.550944 -0.157226 0.00891537 -5.21586 
32 4.3646 14.5829 1.09802 2.08444 1.13202 0.871676 0.484585 -0.387756 0.172057 -5.24786 
33 0.0312755 6.83808 5.94034 0.280827 -0.638473 0.504622 -0.281898 0.149659 -0.250675 -5.25786 
34 4.50796 14.4631 5.72532 -1.87146 -1.03795 1.49699 -0.485949 -0.199128 0.602132 -5.19991 
35 8.81792 6.79159 10.5078 -0.431079 -1.99563 0.00132102 -0.0964877 -0.187707 0.0116933 -5.21762 
36 4.3602 14.362 10.626 -0.925623 1.80462 1.04024 0.463947 0.388414 -0.327889 -5.22129 
37 6.04126 1.66897 1.21394 -2.12633 -0.826223 -2.49805 -0.390869 0.207008 -0.142756 -5.22284 
38 1.365 9.23187 1.24222 -2.91327 2.57874 -1.47125 0.683616 0.376225 -0.26685 -5.258 
39 5.83941 1.72092 5.86971 -1.59131 1.98395 -1.74247 0.38978 -0.282753 0.391684 -5.09305 
40 1.56353 9.40016 5.89075 0.629591 2.09432 2.54408 -0.458837 -0.0634161 -0.141511 -5.23461 
41 5.88877 1.67946 10.5328 0.981798 0.286859 4.01604 0.0817155 -0.325138 -0.105656 -5.24446 
42 1.47034 9.26714 10.4979 -1.88502 0.714323 1.89557 0.100325 0.488088 0.0848789 -5.25159 
43 4.43669 4.21314 1.1398 0.928045 0.924901 1.82713 -0.215126 -0.195661 0.276374 -5.23585 
44 0.0299407 11.8435 1.15499 -3.42298 4.23011 -0.283905 -0.0877985 0.575819 -0.0441965 -5.21834 
45 4.44115 4.33256 5.85379 -0.875266 0.526313 2.75699 -0.442104 0.184809 -0.253578 -5.20354 
46 0.0803046 12.0196 5.81853 -1.56482 -0.886692 -2.46144 -0.187872 -0.402746 0.404451 -5.16148 
47 4.43179 4.14511 10.5555 -1.05448 0.501672 0.432573 -0.0348726 0.535863 -0.0115851 -5.26468 
48 8.81626 11.8479 10.6316 -2.22991 -0.0298843 -1.99281 0.248125 0.0206066 -0.191234 -5.23918 
49 3.00109 6.67458 1.10564 0.450779 2.18049 0.29246 -0.615803 0.582531 0.136756 -5.24223 
50 7.47056 14.5937 1.09827 0.579618 0.986595 -1.00421 -0.246929 -0.526662 0.465967 -5.28182 
51 2.97745 6.84192 5.91413 -1.14421 3.69776 -0.118761 -0.146443 -0.166816 -0.289939 -5.20855 
52 7.38208 14.4738 5.86588 4.93302 -2.4912 -0.562604 0.12075 0.128007 0.0795053 -5.23746 
53 2.91171 6.78092 10.6066 -1.36878 1.53301 -1.73024 0.315496 -0.0837211 -0.212798 -5.2546 
54 7.35848 14.3266 10.6593 2.5196 1.19641 2.12484 -0.0688684 0.561902 -0.402399 -5.2335 
55 1.5548 0.849822 3.55461 0.884371 5.01218 -1.17866 -0.691613 0.00492333 0.0875279 -5.26882 
56 5.89736 8.55011 3.45425 1.45393 0.529948 1.15662 -0.162797 0.0180667 0.191173 -5.22919 
57 1.53445 0.893051 8.15821 -2.06434 0.80343 3.28188 -0.0776948 -0.66673 -0.137344 -5.23871 
58 5.95785 8.51769 8.14814 -0.841762 -0.119413 2.83884 -0.201772 0.133074 0.0636002 -5.22348 
59 1.50901 0.947551 12.8736 1.06052 -3.37336 -0.875775 0.140852 -0.020147 -0.00651332 -5.24374 
60 5.83175 8.45155 12.902 -0.283245 0.857843 0.696605 0.0833899 0.358586 -0.218851 -5.24942 
61 8.81479 3.43427 3.6078 0.544828 -0.70665 -1.32884 0.125349 -0.0710325 -0.160144 -5.2173 
62 4.4523 11.0657 3.47302 -2.46497 0.549244 0.493016 0.00484358 0.0897017 -0.22019 -5.25522 
63 0.0746239 3.41391 8.25674 0.150249 0.0761579 -1.12986 -0.577151 0.0079628 -0.23237 -5.17288 
64 4.45908 11.0633 8.20807 2.36766 0.601667 -0.417215 -0.00613557 -0.193711 0.0383305 -5.23734 
65 8.7335 3.46993 12.9254 1.95292 -0.754642 1.57927 0.432436 -0.0815808 -0.388824 -5.17792 
66 4.40516 11.1463 12.9671 -2.19052 -1.74866 0.140295 0.139083 -0.272095 -0.263821 -5.18316 
67 7.36192 5.9884 3.55602 -1.962 2.43 -0.314817 -0.149878 -0.0984994 0.155024 -5.25591 
68 2.96126 13.5819 3.46139 -0.160387 1.58337 0.383959 0.105963 0.240042 -0.1396 -5.23814 
69 7.32821 5.91252 8.16132 -0.0552329 3.75484 -0.567684 0.187493 0.0386526 0.105098 -5.2357 
70 2.99666 13.4992 8.2145 0.241228 -1.55338 3.61244 -0.256773 0.521969 -0.217334 -5.25113 
71 7.28149 5.94122 12.9124 -0.00656113 0.925415 -0.502592 0.161186 0.0546788 -0.385152 -5.20904 
72 2.92652 13.725 12.8762 -2.44006 -2.19268 0.616525 0.324479 -0.173968 0.0794816 -5.15381 
73 4.47762 0.880649 3.5214 1.57954 1.0341 0.49286 -0.403562 -0.123533 -0.270782 -5.11751 
74 8.74219 8.57278 3.49506 1.07485 -1.62393 -1.12346 0.458313 -0.220749 0.416417 -5.17386 
75 4.43466 0.690978 8.1288 1.74742 3.53728 -1.58187 0.0453771 0.0877594 0.393651 -5.24619 
76 8.84282 8.51774 8.16623 -1.22626 0.201517 0.260592 0.119272 -0.0716686 -0.0340082 -5.22195 
77 4.53397 0.932515 12.8781 -0.356907 -2.40607 -1.74502 -0.413562 -0.118581 0.105794 -5.25561 
78 8.78429 8.45166 12.8412 0.0435435 -0.561676 1.39993 0.122873 0.308068 0.115764 -5.24337 
79 2.80489 3.44964 3.51646 -1.97209 -1.26157 -0.530885 0.445326 0.313487 0.121547 -5.24893 
80 7.48339 11.1573 3.47619 1.73513 -2.39079 -0.154407 -0.688167 -0.0220488 -0.096525 -5.17003 
81 3.01114 3.36748 8.17518 -2.80593 -0.805534 2.67729 -0.0688935 0.100689 0.0202398 -5.19214 
82 7.46084 10.9935 8.2258 1.15012 -0.245594 0.494448 -0.314922 0.229179 -0.200873 -5.22366 
83 2.8895 3.38777 12.8657 -1.95023 2.24514 0.0110387 0.108205 0.0586277 0.0343084 -5.2936 
84 7.37115 11.0584 12.9951 2.08439 0.593516 -1.83354 -0.0218023 -0.0747663 -0.369603 -5.24516 
85 1.38359 6.01999 3.57049 -0.519737 0.550026 -0.555334 0.345228 -0.0691718 -0.169052 -5.27515 
86 5.91258 13.741 3.48319 0.25308 0.932874 2.28192 0.220307 -0.516367 -0.31355 -5.26193 
87 1.49018 5.94748 8.27113 0.920811 -0.674262 0.768327 0.00734957 0.148169 -0.117524 -5.21263 
88 5.91054 13.4907 8.18874 -2.0032 1.16771 -0.224584 0.097785 0.416654 0.20679 -5.25299 
89 1.37174 5.9579 12.7894 -1.9885 1.93007 -0.00252554 0.362306 -0.0122222 0.266686 -5.2414 
90 5.98058 13.6953 12.9159 -0.0281952 -0.839748 -1.45753 -0.199324 -0.232058 0.0388087 -5.2429 
91 7.34781 0.956982 3.57512 -4.92468 1.16194 1.50276 0.832021 -0.578519 -0.398352 -5.22584 
92 2.88981 8.50702 3.53702 0.735369 0.484146 -0.669421 0.123369 0.0839094 -0.355048 -5.26987 
93 7.42004 0.830291 8.31191 -1.57216 -4.21801 -2.69623 -0.229151 -0.244512 -0.192232 -5.28379 
94 2.99942 8.49815 8.16464 -0.586081 -0.729293 -2.54296 -0.123339 0.134297 0.288736 -5.25549 
95 7.4738 0.922223 12.8495 0.420137 1.64009 3.13181 -0.125919 -0.273652 -0.0751704 -5.20569 
96 2.87529 8.57082 12.8952 -0.125349 -2.66935 -3.22534 0.0983571 -0.296016 0.0678887 -5.24194 
97 5.82303 3.32084 3.63094 5.5064 1.50587 -1.31637 0.0231084 0.878112 -0.590121 -5.20315 
98 1.44089 11.1461 3.56698 -1.72178 -1.49145 1.20636 0.462418 -0.520152 -0.435599 -5.18296 
99 5.79897 3.35772 8.11805 0.220865 1.29244 -0.211742 0.526637 0.0510781 0.497995 -5.22278 
100 1.46668 11.0873 8.21106 -2.05666 -0.751272 -0.875322 0.263302 -0.159282 0.00738961 -5.25351 
101 5.90769 3.38511 12.9482 0.408616 0.377409 -0.71894 -0.227726 0.0334156 -0.173323 -5.18202 
102 1.48929 11.065 12.9023 -0.0684409 2.44937 0.48393 -0.120016 -0.302785 -0.0770202 -5.22246 
103 4.42516 6.05151 3.42686 -0.953154 -3.03992 0.83353 -0.239838 -0.494704 0.429426 -5.2629 
104 0.0568847 13.562 3.54309 1.95907 -1.84726 0.330934 -0.317319 0.817715 -0.509087 -5.17657 
105 4.44795 5.96913 8.17934 1.64213 -2.38372 -0.266681 -0.155285 -0.0723115 0.326431 -5.21586 
106 8.83476 13.5621 8.2402 4.0246 -0.93918 -0.00179339 0.193008 0.366818 0.00793354 -5.25169 
107 4.4229 5.93617 12.8848 1.72585 -2.92352 0.915231 -0.357634 0.0108424 -0.293935 -5.2156 
108 0.121354 13.6188 12.9171 0.140431 -0.314801 -3.98158 -0.405781 0.0566669 -0.0403892 -5.17529 
ITEM: TIMESTEP
200
ITEM: NUMBER OF ATOMS
108
ITEM: BOX BOUNDS pp pp pp
0.0000000000000000e+00 8.8499999999999996e+00
0.0000000000000000e+00 1.5328649000000000e+01
0.0000000000000000e+00 1.4058000000000000e+01
ITEM: ATOMS id x y z vx vy vz fx fy fz c_apE 
1 8.76269 1.57924 1.20276 -0.358437 2.98792 -0.711848 0.302124 0.607742 -0.338576 -5.23961 
2 4.34444 9.36211 1.19858 2.12154 0.256788 0.343271 0.498036 0.184457 -0.220206 -5.22433 
3 0.130891 1.689 5.82258 -1.12695 1.08878 -3.5113 -0.522634 0.144329 -0.0323675 -5.16867 
4 4.50464 9.34166 5.85973 -4.00759 1.01591 0.025505 -0.482325 0.347337 0.127695 -5.27792 
5 8.81509 1.63474 10.5632 2.56673 0.51106 -1.82438 0.275534 0.110924 -0.0302617 -5.26086 
6 4.403 9.32495 10.4597 0.644955 0.375684 1.26804 0.178002 0.158564 0.21076 -5.18291 
7 7.35422 4.28512 1.01899 0.60886 -0.0622572 0.378213 0.142008 -0.083558 0.213111 -5.23974 
8 2.93044 11.979 1.24481 -1.29606 1.39183 1.22474 0.442762 -0.136274 -0.50647 -5.11739 
9 7.45819 4.32521 5.88733 -0.0757408 -1.25419 -0.924072 -0.336997 -0.343719 -0.0629656 -5.24722 
10 2.82211 11.9465 5.8976 -3.78176 1.29522 -1.32645 0.690469 -0.266868 -0.42488 -5.25021 
11 7.37762 4.22857 10.4998 0.626899 2.3685 3.8672 0.151793 0.00987958 0.200354 -5.15127 
12 2.94156 11.8357 10.5138 -0.626485 4.0377 0.341499 0.296697 0.407027 0.0688545 -5.22189 
13 5.83082 6.90985 1.18687 3.00058 -1.02636 -0.217412 0.0176264 -0.380656 -0.206262 -5.30848 
14 1.60801 14.4382 1.25094 0.721556 -0.985192 -3.39302 -0.506677 0.27607 -0.450646 -5.19437 
15 5.8741 6.7539 5.85442 -0.428343 -1.39629 0.738947 -0.111029 0.0957381 0.249252 -5.22443 
16 1.60229 14.488 5.88387 0.868899 -2.3187 -0.997389 -0.602613 -0.229275 -0.308668 -5.17142 
17 5.87367 6.69878 10.717 0.290496 0.935259 -0.711157 0.0680541 0.46103 -0.605356 -5.19489 
18 1.62516 14.3898 10.5376 0.845795 -1.32079 1.39218 -0.186529 0.348928 0.332723 -5.21709 
19 2.96209 1.67581 1.00602 -2.10889 -3.12015 0.858055 -0.141989 0.00125407 0.796965 -5.19323 
20 7.39967 9.37211 1.1467 -0.0270212 0.978331 0.724632 -0.00293643 0.0987391 0.13134 -5.30979 
21 2.81775 1.63162 5.99388 -0.420446 3.14305 1.22519 0.772176 0.128799 -0.316229 -5.14172 
22 7.34316 9.2839 5.99894 -0.773744 -2.44115 -1.09779 -0.0204526 0.311667 -0.349164 -5.20349 
23 2.9403 1.81339 10.6432 -1.51273 1.18385 1.30239 -0.0296593 -0.552337 -0.182872 -5.22532 
24 7.36669 9.34838 10.5841 -1.40441 1.23627 -1.38987 0.00124252 0.165483 -0.367913 -5.26084 
25 1.55035 4.21471 1.2127 0.295417 0.0924218 0.249882 -0.467868 -0.16733 -0.0384376 -5.24026 
26 5.95917 11.9329 1.13193 -0.273397 -3.07954 -1.18286 -0.241939 -0.412083 -0.0530819 -5.2166 
27 1.59381 4.21799 5.80826 -2.46615 -1.56126 -0.934905 -0.526672 0.32703 0.165551 -5.21796 
28 5.93271 11.978 5.85272 1.20545 -1.10066 1.3623 -0.351086 -0.353142 0.0482434 -5.20385 
29 1.42099 4.26889 10.5847 -1.10335 0.545559 0.35087 -0.0153989 -0.00445668 -0.441237 -5.24818 
30 5.92442 12.0148 10.5404 1.22921 0.806079 -1.93569 -0.0601544 -0.517078 -0.0147605 -5.21778 
31 8.83784 6.75148 1.21394 -1.5387 2.36675 -1.22337 -0.172615 0.410055 -0.0947655 -5.21385 
32 4.57188 14.3963 1.22896 -2.15007 -1.06335 0.421217 -0.306861 0.530808 -0.113363 -5.19289 
33 8.78609 6.83943 5.77605 0.652012 -1.43951 -1.62855 0.283072 -0.22362 0.284916 -5.17992 
34 4.41961 14.461 6.00872 4.325 2.93264 -1.2751 0.236318 0.243606 -0.542274 -5.23565 
35 8.83729 6.78543 10.5558 2.20506 4.30217 1.29623 0.0941997 0.158865 0.0474555 -5.2415 
36 4.55875 14.5248 10.4677 -0.718864 -1.58206 -0.836073 -0.698462 -0.171802 0.453088 -5.19926 
37 5.76574 1.81535 1.11988 0.596111 1.38115 2.31358 0.492591 -0.434321 0.260253 -5.21541 
38 1.51184 9.60704 1.01353 0.332871 -0.0573576 0.613317 -0.404805 -0.866682 0.630804 -5.1255 
39 5.99098 1.70115 5.81778 1.00505 0.368838 -2.12831 -0.502759 0.240276 -0.0729596 -5.31837 
40 1.4128 9.39565 5.792 0.410827 -2.27224 -3.67286 0.326185 -0.0549556 0.222129 -5.21036 
41 5.92509 1.68189 10.5819 -1.04872 2.29577 -1.36672 -0.147305 0.161518 0.185243 -5.20058 
42 1.43008 9.40992 10.5934 -0.232936 -1.6755 -0.356798 -0.0117307 -0.245694 -0.0393891 -5.21018 
43 4.34551 4.33788 1.24722 -0.92131 3.7156 -2.62691 0.24158 0.0448678 -0.327995 -5.20925 
44 0.00503173 12.1059 1.15755 2.82835 -4.82254 -0.2291 -0.347995 -0.569041 -0.0360377 -5.19479 
45 4.37874 4.1755 5.89702 4.54561 -4.97737 0.635547 0.476406 0.164229 0.170903 -5.24695 
46 8.82251 11.8417 5.83608 0.885052 1.08029 -0.358569 0.145342 0.362414 -0.170108 -5.27651 
47 4.40955 4.33369 10.4996 0.403494 -0.759631 -2.06154 -0.0793958 -0.262437 0.0169519 -5.19167 
48 0.0694441 11.9602 10.4047 2.03596 1.69523 -0.000794214 -0.283916 -0.151127 0.419629 -5.22025 
49 2.76482 6.9607 1.22472 0.465604 -1.07505 1.91473 0.638509 -0.434772 0.0346584 -5.16993 
50 7.31114 14.4015 1.22112 -2.24511 -0.115841 -0.635849 0.205088 0.389 -0.22367 -5.13794 
51 2.886 6.90979 5.8232 1.24688 -2.71618 1.34124 0.220448 -0.366342 0.291572 -5.23682 
52 7.40726 14.4562 5.84319 -5.03358 1.25266 -1.06398 0.215336 0.0290687 -0.169548 -5.23399 
53 2.92579 6.82735 10.4377 -1.77389 -0.721099 0.580512 -0.205137 -0.176754 0.326984 -5.20275 
54 7.43775 14.5816 10.4472 0.62171 0.16751 -1.71772 0.167413 -0.350048 0.643971 -5.18416 
55 1.3726 0.970699 3.50006 1.38899 -2.54224 -1.4601 0.606496 -0.16104 -0.171558 -5.18132 
56 5.86452 8.5139 3.54938 -0.09449 -1.35566 -0.192311 0.301543 0.0400107 -0.115891 -5.21045 
57 1.42675 0.753636 8.32075 0.384824 2.45047 1.54404 0.0661073 0.448816 -0.0261548 -5.20607 
58 5.82866 8.48263 8.32896 1.30341 -1.49611 -0.962283 0.383403 0.00168702 -0.33964 -5.23299 
59 1.52236 0.752864 12.9099 -3.47208 -1.0009 1.57237 -0.287928 0.0473737 -0.0952893 -5.20699 
60 5.88465 8.57697 12.8452 1.01166 -1.62408 -0.0376793 0.035768 -0.377286 0.206936 -5.1907 
61 8.81618 3.47884 3.46142 -0.428427 1.03958 -0.511256 0.238092 -0.192484 0.106839 -5.23465 
62 4.40776 11.144 3.48632 1.38559 -0.190114 3.21978 0.0312954 -0.18789 0.402124 -5.20788 
63 8.70197 3.31052 8.09949 2.11263 -0.793683 0.808169 0.796152 0.434363 0.432537 -5.20994 
64 4.45485 11.0688 8.19105 -2.25885 1.44919 -0.800067 -0.0308975 0.132804 -0.0980532 -5.25017 
65 0.107672 3.35777 12.8077 -2.33813 -2.05381 -0.0317852 -0.548533 -0.0151615 0.498362 -5.26031 
66 4.45213 10.9081 12.8004 1.97087 -0.317707 -0.582608 -0.224612 0.376901 0.402869 -5.23981 
67 7.29298 5.99538 3.49447 2.518 -1.69003 -2.4326 0.22019 0.0301263 -0.0928451 -5.17853 
68 2.98723 13.7477 3.52983 0.239998 -0.706526 3.31896 -0.0648906 -0.249214 0.246287 -5.2018 
69 7.41602 6.02903 8.23818 -0.212088 -1.91452 1.94435 -0.285834 -0.212932 -0.029263 -5.24909 
70 2.99019 13.6986 8.21107 2.54861 1.40804 -1.62722 0.182372 -0.416737 0.0961486 -5.17937 
71 7.39141 5.97118 12.8285 1.42586 -0.482694 2.79578 -0.159139 -0.0147299 0.395741 -5.22748 
72 3.04437 13.4536 12.9382 1.48023 -1.32915 -1.41732 -0.39477 0.411784 -0.327912 -5.26088 
73 4.39288 0.925215 3.5462 0.047003 -0.617706 1.57603 0.309508 -0.223176 -0.0254 -5.32762 
74 0.102689 8.48632 3.58943 -1.60605 2.56763 -1.76646 -0.549436 0.314304 -0.599665 -5.24564 
75 4.41785 1.0033 8.32839 -3.12257 1.99867 2.22432 -0.0334197 -0.289088 -0.452545 -5.20966 
76 0.0089839 8.49631 8.26088 -0.663333 1.11249 1.44531 -0.240471 0.287448 -0.268521 -5.24166 
77 4.32533 0.762461 12.9051 0.262444 -0.542611 1.45764 0.503119 0.0893938 -0.154052 -5.19942 
78 8.8418 8.5372 12.9465 0.286851 -0.402481 -0.782007 -0.0687814 -0.22284 -0.205088 -5.21788 
79 3.12853 3.37161 3.59732 3.8557 -2.99688 -0.0216422 -0.752413 -0.135973 -0.377488 -5.16257 
80 7.2728 10.981 3.50606 1.20086 -0.936959 1.88964 0.779038 0.193901 0.0462002 -5.2552 
81 2.85619 3.33972 8.26532 0.216731 0.913339 -1.4009 0.156706 0.305921 -0.0921801 -5.23008 
82 7.29961 11.1948 8.18612 -1.34119 -0.425388 0.647358 0.489569 -0.840062 0.148525 -5.22779 
83 2.97246 3.44426 12.8956 2.63807 -2.20438 0.462208 -0.0701661 -0.18569 -0.0742693 -5.14838 
84 7.35905 11.0706 12.7631 -1.31781 0.933549 0.379522 0.241368 0.128217 0.381098 -5.21 
85 1.47557 5.92866 3.4686 0.0125407 -2.17086 0.0503136 -0.101859 -0.0282373 0.238503 -5.18417 
86 5.93168 13.5264 3.59224 -2.7343 -0.423968 3.44054 -0.135353 0.539719 0.042079 -5.18564 
87 1.46411 5.96434 8.12476 -2.49298 -1.66149 -3.4758 -0.157105 -0.355176 0.10901 -5.26496 
88 5.99792 13.7003 8.25669 1.19353 -0.321832 -1.21614 -0.445963 -0.278826 -0.326594 -5.13068 
89 1.49465 5.98397 12.9636 1.71165 -1.47513 1.4406 -0.264713 -0.108123 -0.277496 -5.19995 
90 5.82339 13.5081 12.8341 -1.13408 -0.363742 -1.00586 0.315398 0.422364 -0.0287053 -5.18357 
91 7.42363 0.818962 3.49112 -0.413115 1.29807 -1.23178 -0.588525 0.358466 -0.0280454 -5.18879 
92 3.03643 8.55588 3.47456 0.468938 -0.0057597 2.14139 -0.385333 0.00290428 0.125795 -5.18355 
93 7.30638 0.77836 8.06596 2.07677 6.04655 -0.676952 0.377672 0.35266 0.257625 -5.14754 
94 2.90443 8.50961 8.23741 -0.34175 0.0192273 0.752081 0.0739769 -0.00262397 -0.382277 -5.18174 