LAMMPS (3 Mar 2020)
#----------Define variables from in.param-------------

jump in.param start

variable tStep equal 1000 #Timesteps. Default: 1000. Must have tStep > pDamp and tStep > tDamp.
variable dFile string lammps.dat #Structure data file to read.Default: lammps.dat
variable sRate equal 100 #Sampling (dump/restart) rate. Default: 10.
variable pot string eam #adp #Potential style. Default: adp.
variable cellX equal 1 #Supercell multiplier x-axis. Default 1.
variable cellY equal 1 #Supercell multiplier y-axis. Default 1.
variable cellZ equal 1 #Supercell multiplier z-axis. Default 1.
variable tDamp equal 100*dt #temp damping. Default: 100. Don't remove *dt.
variable pDamp equal 1000*dt #temp damping. Default: 1000. Don't remove *dt.

jump in.base setup

if "${tStep} == 0" then "print 'Must specify number of timesteps.'"  quit  else "print 'tStep is ${tStep}'"
print 'tStep is ${tStep}'
tStep is 1000

#----------- Set Up Directories -----------------------
variable pathName string ${pot}${tStep}
variable pathName string eam${tStep}
variable pathName string eam1000
print "creating ${pathName} and subfolders..."
creating eam1000 and subfolders...
shell mkdir ${pathName}
shell mkdir eam1000
WARNING: Shell command 'mkdir' failed with error 'File exists' (src/input.cpp:1292)
shell mkdir ${pathName}/log_files
shell mkdir eam1000/log_files
WARNING: Shell command 'mkdir' failed with error 'File exists' (src/input.cpp:1292)
shell mkdir ${pathName}/restart_files
shell mkdir eam1000/restart_files
WARNING: Shell command 'mkdir' failed with error 'File exists' (src/input.cpp:1292)
shell mkdir ${pathName}/dump_files
shell mkdir eam1000/dump_files
WARNING: Shell command 'mkdir' failed with error 'File exists' (src/input.cpp:1292)
shell mkdir ${pathName}/post_process
shell mkdir eam1000/post_process
WARNING: Shell command 'mkdir' failed with error 'File exists' (src/input.cpp:1292)

#------------Copy log file to correct directory---------
print "Log file located in ${pathName}/log_files/log.lammps."
Log file located in eam1000/log_files/log.lammps.
shell mv log.lammps ${pathName}/log_files/log.lammps
shell mv log.lammps eam1000/log_files/log.lammps
log ${pathName}/log_files/log.lammps append
log eam1000/log_files/log.lammps append

# ---------- Initialize Simulation ---------------------
clear
units metal
dimension 3
boundary p p p
atom_style atomic
atom_modify map array
neighbor 2.0 bin
neigh_modify every 1 delay 0 check yes

# ---------- Create Atoms ------------------------------
#variable dataFile string lammps.dat
read_data ${dFile}
read_data lammps.dat
  orthogonal box = (0 0 0) to (8.85 15.3286 14.058)
  1 by 1 by 1 MPI processor grid
  reading atoms ...
  108 atoms
  read_data CPU = 0.00149127 secs
replicate ${cellX} ${cellY} ${cellZ}
replicate 1 ${cellY} ${cellZ}
replicate 1 1 ${cellZ}
replicate 1 1 1
  orthogonal box = (0 0 0) to (8.85 15.3286 14.058)
  1 by 1 by 1 MPI processor grid
  108 atoms
  replicate CPU = 0.000491692 secs

# ---------- Define Interatomic Potential --------------
pair_style eam/fs
pair_coeff * * Ti2.eam.fs Ti

# ---------- Define Settings ---------------------------
compute apE all pe/atom
compute eatoms all reduce sum c_apE
variable nRuns loop 100 #increment with each command that runs for tSteps. nRuns starts at 1, so skip first run cmd.

# ---------- Run Minimization --------------------------
reset_timestep 0
thermo ${sRate}
thermo 100
thermo_style custom step pe lx ly lz press pxx pyy pzz c_eatoms

min_style sd
minimize 1e-16 1e-16 10000 10000
Neighbor list info ...
  update every 1 steps, delay 0 steps, check yes
  max neighbors/atom: 2000, page size: 100000
  master list distance cutoff = 8.9
  ghost atom cutoff = 8.9
  binsize = 4.45, bins = 2 4 4
  1 neighbor lists, perpetual/occasional/extra = 1 0 0
  (1) pair eam/fs, perpetual
      attributes: half, newton on
      pair build: half/bin/atomonly/newton
      stencil: half/bin/3d/newton
      bin: standard
Per MPI rank memory allocation (min/avg/max) = 4.643 | 4.643 | 4.643 Mbytes
Step PotEng Lx Ly Lz Press Pxx Pyy Pzz c_eatoms 
       0   -566.61698         8.85    15.328649       14.058    1906.1887    964.06549    964.11287    3790.3877   -566.61698 
      34   -566.61698         8.85    15.328649       14.058    1906.1887    964.06995    964.10842    3790.3877   -566.61698 
Loop time of 0.0124983 on 1 procs for 34 steps with 108 atoms

99.9% CPU use with 1 MPI tasks x no OpenMP threads

Minimization stats:
  Stopping criterion = energy tolerance
  Energy initial, next-to-last, final = 
        -566.616981001     -566.616981001     -566.616981001
  Force two-norm initial, final = 4.84296e-06 2.43261e-13
  Force max component initial, final = 6.02155e-07 3.87329e-14
  Final line search alpha, max atom move = 1 3.87329e-14
  Iterations, force evaluations = 34 68

MPI task timing breakdown:
Section |  min time  |  avg time  |  max time  |%varavg| %total
---------------------------------------------------------------
Pair    | 0.011978   | 0.011978   | 0.011978   |   0.0 | 95.83
Neigh   | 0          | 0          | 0          |   0.0 |  0.00
Comm    | 0.00033769 | 0.00033769 | 0.00033769 |   0.0 |  2.70
Output  | 0          | 0          | 0          |   0.0 |  0.00
Modify  | 0          | 0          | 0          |   0.0 |  0.00
Other   |            | 0.000183   |            |       |  1.46

Nlocal:    108 ave 108 max 108 min
Histogram: 1 0 0 0 0 0 0 0 0 0
Nghost:    1628 ave 1628 max 1628 min
Histogram: 1 0 0 0 0 0 0 0 0 0
Neighs:    8532 ave 8532 max 8532 min
Histogram: 1 0 0 0 0 0 0 0 0 0

Total # of neighbors = 8532
Ave neighs/atom = 79
Neighbor list builds = 0
Dangerous builds = 0

#-------Writing Dumps/Restarts--------------------------
reset_timestep 0

if "${pot} == adp" then  "dump difDump all custom ${sRate} ${pathName}/dump_files/difDump.txt id x y z vx vy vz #fx fy fz c_apE" "dump_modify difDump sort id #pbc yes"

dump refDump all custom ${sRate} ${pathName}/dump_files/refDump.txt id x y z vx vy vz fx fy fz c_apE
dump refDump all custom 100 ${pathName}/dump_files/refDump.txt id x y z vx vy vz fx fy fz c_apE
dump refDump all custom 100 eam1000/dump_files/refDump.txt id x y z vx vy vz fx fy fz c_apE
dump_modify refDump sort id #pbc yes

restart ${sRate} ${pathName}/restart_files/ref.restart.*
restart 100 ${pathName}/restart_files/ref.restart.*
restart 100 eam1000/restart_files/ref.restart.*

velocity all create 300.0 8675309 rot yes dist gaussian

write_restart ${pathName}/restart_files/ref.restart.0
write_restart eam1000/restart_files/ref.restart.0
#--------------------------------------------------------
#initial mixing
fix 1 all nvt temp 500 500 ${tDamp}
fix 1 all nvt temp 500 500 0.1
run ${tStep}
run 1000
Per MPI rank memory allocation (min/avg/max) = 4.912 | 4.912 | 4.912 Mbytes
Step PotEng Lx Ly Lz Press Pxx Pyy Pzz c_eatoms 
       0   -566.61698         8.85    15.328649       14.058    4230.0921    3313.3676    3344.0353    6032.8735   -566.61698 
     100   -564.33127         8.85    15.328649       14.058    6126.4421    6014.8726    4666.3969    7698.0568   -564.33127 
     200   -563.17852         8.85    15.328649       14.058    3958.1377    2247.9765    4050.3115    5576.1251   -563.17852 
     300   -563.08848         8.85    15.328649       14.058    3720.7798    3313.3747    3356.2139    4492.7509   -563.08848 
     400   -561.19231         8.85    15.328649       14.058    13695.742    12307.369    14965.308    13814.548   -561.19231 
     500   -559.96395         8.85    15.328649       14.058    12289.189    10921.759    12752.451    13193.355   -559.96395 
     600    -559.3495         8.85    15.328649       14.058    14668.251    14224.387    14453.139    15327.226    -559.3495 
     700   -558.88043         8.85    15.328649       14.058    23111.025    23457.362        23550    22325.713   -558.88043 
     800   -559.78218         8.85    15.328649       14.058     15697.43    15236.414    14935.235    16920.641   -559.78218 
     900   -559.54025         8.85    15.328649       14.058    14602.722    14171.695    11396.475    18239.994   -559.54025 
    1000   -560.43766         8.85    15.328649       14.058    12868.204    14024.108    11343.134     13237.37   -560.43766 
Loop time of 0.326782 on 1 procs for 1000 steps with 108 atoms

Performance: 264.396 ns/day, 0.091 hours/ns, 3060.144 timesteps/s
97.1% CPU use with 1 MPI tasks x no OpenMP threads

MPI task timing breakdown:
Section |  min time  |  avg time  |  max time  |%varavg| %total
---------------------------------------------------------------
Pair    | 0.30613    | 0.30613    | 0.30613    |   0.0 | 93.68
Neigh   | 0.0023075  | 0.0023075  | 0.0023075  |   0.0 |  0.71
Comm    | 0.0062592  | 0.0062592  | 0.0062592  |   0.0 |  1.92
Output  | 0.0076909  | 0.0076909  | 0.0076909  |   0.0 |  2.35
Modify  | 0.0028254  | 0.0028254  | 0.0028254  |   0.0 |  0.86
Other   |            | 0.001566   |            |       |  0.48

Nlocal:    108 ave 108 max 108 min
Histogram: 1 0 0 0 0 0 0 0 0 0
Nghost:    1570 ave 1570 max 1570 min
Histogram: 1 0 0 0 0 0 0 0 0 0
Neighs:    8443 ave 8443 max 8443 min
Histogram: 1 0 0 0 0 0 0 0 0 0

Total # of neighbors = 8443
Ave neighs/atom = 78.1759
Neighbor list builds = 10
Dangerous builds = 0
unfix 1
#nRuns starts at 1 so don't increment this time.

fix 1 all npt temp 500 500 ${tDamp} iso 0 0 ${pDamp}
fix 1 all npt temp 500 500 0.1 iso 0 0 ${pDamp}
fix 1 all npt temp 500 500 0.1 iso 0 0 1
run ${tStep}
run 1000
Per MPI rank memory allocation (min/avg/max) = 4.912 | 4.912 | 4.912 Mbytes
Step PotEng Lx Ly Lz Press Pxx Pyy Pzz c_eatoms 
    1000   -560.43766         8.85    15.328649       14.058    12868.204    14024.108    11343.134     13237.37   -560.43766 
    1100   -560.67647    8.8914271    15.400403    14.123806   -3177.7187   -2532.6338   -2841.7353   -4158.7869   -560.67647 
    1200   -559.58669     8.879383    15.379542    14.104674   -5088.8218   -5544.4768   -5416.5423   -4305.4464   -559.58669 
    1300   -559.93829    8.8876739    15.393902    14.117844   -2060.7806   -3468.4767   -1582.3957   -1131.4694   -559.93829 
    1400   -559.85415    8.8685551    15.360787    14.087474    7114.8383    6812.2721    8376.5261    6155.7166   -559.85415 
    1500   -559.02942    8.8840334    15.387597    14.112061   -4426.5813      -4856.1   -3148.6224   -5275.0214   -559.02942 
    1600   -560.40014    8.8648464    15.354364    14.081583    3867.5679    4377.7515    4275.8374    2949.1148   -560.40014 
    1700   -560.93861     8.902383    15.419379    14.141209   -9387.0758   -8649.8043   -7498.5312   -12012.892   -560.93861 
    1800   -559.76493    8.8592709    15.344707    14.072727    4998.8953    6479.0563    4383.0016     4134.628   -559.76493 
    1900   -559.15957    8.9041161    15.422381    14.143962   -6811.8223   -6785.2167   -6811.7913   -6838.4589   -559.15957 
    2000   -558.81215    8.8737434    15.369774    14.095716    10775.678    11544.968    9049.6371     11732.43   -558.81215 
Loop time of 0.328528 on 1 procs for 1000 steps with 108 atoms

Performance: 262.991 ns/day, 0.091 hours/ns, 3043.879 timesteps/s
99.9% CPU use with 1 MPI tasks x no OpenMP threads

MPI task timing breakdown:
Section |  min time  |  avg time  |  max time  |%varavg| %total
---------------------------------------------------------------
Pair    | 0.30141    | 0.30141    | 0.30141    |   0.0 | 91.75
Neigh   | 0.0021264  | 0.0021264  | 0.0021264  |   0.0 |  0.65
Comm    | 0.0052012  | 0.0052012  | 0.0052012  |   0.0 |  1.58
Output  | 0.012873   | 0.012873   | 0.012873   |   0.0 |  3.92
Modify  | 0.0054345  | 0.0054345  | 0.0054345  |   0.0 |  1.65
Other   |            | 0.001483   |            |       |  0.45

Nlocal:    108 ave 108 max 108 min
Histogram: 1 0 0 0 0 0 0 0 0 0
Nghost:    1543 ave 1543 max 1543 min
Histogram: 1 0 0 0 0 0 0 0 0 0
Neighs:    8410 ave 8410 max 8410 min
Histogram: 1 0 0 0 0 0 0 0 0 0

Total # of neighbors = 8410
Ave neighs/atom = 77.8704
Neighbor list builds = 10
Dangerous builds = 0
unfix 1
next nRuns

#cooling
fix 1 all npt temp 500 300 ${tDamp} iso 0 0 ${pDamp}
fix 1 all npt temp 500 300 0.1 iso 0 0 ${pDamp}
fix 1 all npt temp 500 300 0.1 iso 0 0 1
run ${tStep}
run 1000
Per MPI rank memory allocation (min/avg/max) = 4.912 | 4.912 | 4.912 Mbytes
Step PotEng Lx Ly Lz Press Pxx Pyy Pzz c_eatoms 
    2000   -558.81215    8.8737434    15.369774    14.095716    10775.678    11544.968    9049.6371     11732.43   -558.81215 
    2100   -559.80587    8.8865951    15.392034     14.11613    2637.0615    3605.8285    1785.6029    2519.7531   -559.80587 
    2200   -559.95491    8.8796976    15.380087    14.105174    2419.6115    1191.7459    2336.5955    3730.4931   -559.95491 
    2300   -561.06531     8.872337    15.367338    14.093482   -695.74049   -3500.2086     478.7601    934.22703   -561.06531 
    2400   -560.93604    8.8783927    15.377827    14.103101   -5681.2016   -5157.9794   -5281.9441   -6603.6812   -560.93604 
    2500   -560.57795    8.8705084    15.364171    14.090577   -2607.7508   -5256.7687   -620.68229   -1945.8013   -560.57795 
    2600   -561.18462    8.8760313    15.373737     14.09935    257.96579   -2705.1083    284.27344    3194.7323   -561.18462 
    2700    -561.5205    8.8685671    15.360808    14.087493    773.28092    967.45472   -1016.3369     2368.725    -561.5205 
    2800   -561.78984    8.8719608    15.366686    14.092884   -3694.0911   -4978.2303   -2890.0166   -3214.0265   -561.78984 
    2900   -562.37578    8.8701929    15.363624    14.090076   -2470.2831   -2824.3334   -2854.6211    -1731.895   -562.37578 
    3000   -562.27283    8.8616145    15.348766    14.076449    5374.3156    7940.1337    2322.3537    5860.4596   -562.27283 
Loop time of 0.348681 on 1 procs for 1000 steps with 108 atoms

Performance: 247.791 ns/day, 0.097 hours/ns, 2867.951 timesteps/s
98.6% CPU use with 1 MPI tasks x no OpenMP threads

MPI task timing breakdown:
Section |  min time  |  avg time  |  max time  |%varavg| %total
---------------------------------------------------------------
Pair    | 0.319      | 0.319      | 0.319      |   0.0 | 91.49
Neigh   | 0.0021787  | 0.0021787  | 0.0021787  |   0.0 |  0.62
Comm    | 0.0053384  | 0.0053384  | 0.0053384  |   0.0 |  1.53
Output  | 0.015265   | 0.015265   | 0.015265   |   0.0 |  4.38
Modify  | 0.0054722  | 0.0054722  | 0.0054722  |   0.0 |  1.57
Other   |            | 0.00143    |            |       |  0.41

Nlocal:    108 ave 108 max 108 min
Histogram: 1 0 0 0 0 0 0 0 0 0
Nghost:    1555 ave 1555 max 1555 min
Histogram: 1 0 0 0 0 0 0 0 0 0
Neighs:    8403 ave 8403 max 8403 min
Histogram: 1 0 0 0 0 0 0 0 0 0

Total # of neighbors = 8403
Ave neighs/atom = 77.8056
Neighbor list builds = 10
Dangerous builds = 0
unfix 1
next nRuns

#final relax
fix 1 all npt temp 300 300 ${tDamp} iso 0 0 ${pDamp}
fix 1 all npt temp 300 300 0.1 iso 0 0 ${pDamp}
fix 1 all npt temp 300 300 0.1 iso 0 0 1
run ${tStep}
run 1000
Per MPI rank memory allocation (min/avg/max) = 4.912 | 4.912 | 4.912 Mbytes
Step PotEng Lx Ly Lz Press Pxx Pyy Pzz c_eatoms 
    3000   -562.27283    8.8616145    15.348766    14.076449    5374.3156    7940.1337    2322.3537    5860.4596   -562.27283 
    3100   -562.82924    8.8543491    15.336182    14.064908    2697.3325    733.67119    3518.1762      3840.15   -562.82924 
    3200   -562.64192     8.886161    15.391282    14.115441   -7009.0667    -8114.028    -7694.537   -5218.6352   -562.64192 
    3300   -562.71555    8.8559654    15.338981    14.067476    4882.0025    4595.8433    2882.3727    7167.7914   -562.71555 
    3400   -562.72861    8.8653765    15.355282    14.082425    545.49326    523.64638    93.055691    1019.7777   -562.72861 
    3500   -562.53365    8.8712901    15.365525    14.091819    2724.3396    1877.1989    3519.2767    2776.5433   -562.53365 
    3600   -562.17421    8.8562328    15.339445    14.067901    8081.4551    7862.7339    6583.9798    9797.6517   -562.17421 
    3700   -561.82484    8.8956979      15.4078     14.13059   -10001.626   -10244.416   -9933.8936   -9826.5696   -561.82484 
    3800   -561.99392    8.8640059    15.352908    14.080248    995.75783    362.91966    554.30475    2070.0491   -561.99392 
    3900   -562.83353    8.8607989    15.347353    14.075154    5216.2725    4250.2056    3749.1112    7649.5009   -562.83353 
    4000   -563.03662    8.8695528    15.362515    14.089059   -3008.3761   -4206.1094   -3043.9848   -1775.0342   -563.03662 
Loop time of 0.319419 on 1 procs for 1000 steps with 108 atoms

Performance: 270.492 ns/day, 0.089 hours/ns, 3130.689 timesteps/s
98.6% CPU use with 1 MPI tasks x no OpenMP threads

MPI task timing breakdown:
Section |  min time  |  avg time  |  max time  |%varavg| %total
---------------------------------------------------------------
Pair    | 0.29762    | 0.29762    | 0.29762    |   0.0 | 93.18
Neigh   | 0.0021526  | 0.0021526  | 0.0021526  |   0.0 |  0.67
Comm    | 0.0053014  | 0.0053014  | 0.0053014  |   0.0 |  1.66
Output  | 0.007217   | 0.007217   | 0.007217   |   0.0 |  2.26
Modify  | 0.0056819  | 0.0056819  | 0.0056819  |   0.0 |  1.78
Other   |            | 0.001442   |            |       |  0.45

Nlocal:    108 ave 108 max 108 min
Histogram: 1 0 0 0 0 0 0 0 0 0
Nghost:    1570 ave 1570 max 1570 min
Histogram: 1 0 0 0 0 0 0 0 0 0
Neighs:    8367 ave 8367 max 8367 min
Histogram: 1 0 0 0 0 0 0 0 0 0

Total # of neighbors = 8367
Ave neighs/atom = 77.4722
Neighbor list builds = 10
Dangerous builds = 0
unfix 1
next nRuns

variable natoms equal "count(all)"
variable teng equal "c_eatoms"
variable length equal "lx"
variable ecoh equal "v_teng/v_natoms"

print "Total energy (eV) = ${teng};"
Total energy (eV) = -563.036615901164;
print "Number of atoms = ${natoms};"
Number of atoms = 108;
print "Lattice constant (Angstroms) = ${length};"
Lattice constant (Angstroms) = 8.869552821587;
print "Cohesive energy (eV) = ${ecoh};"
Cohesive energy (eV) = -5.21330199908485;

#----------------Jump to potential script--------------
print "Reference calculations complete. Ran ${nRuns} steps. Beginning ADP calculations."
Reference calculations complete. Ran 4 steps. Beginning ADP calculations.

jump in.pot
#--Label cmd to access script from other scripts-----
label startADP

clear

#Debug step. Checking tStep var migrated from in.eam
print "Initial value of tStep is: ${tStep}."
Initial value of tStep is: 1000.
print "Initial value of pathName is: ${pathName}."
Initial value of pathName is: eam1000.

# ---------- Create Atoms ------------------------------
#Lammps loop cmd starts from 1. Need to capture timestep 0 prior to starting loop.
read_restart ${pathName}/restart_files/ref.restart.0
read_restart eam1000/restart_files/ref.restart.0
  restoring atom style atomic from restart
  orthogonal box = (0 0 0) to (8.85 15.3286 14.058)
  1 by 1 by 1 MPI processor grid
  pair style eam/fs stores no restart info
  108 atoms
  read_restart CPU = 0.000129075 secs

neighbor 2.0 bin
neigh_modify every 1 delay 0 check yes

# ---------- Define Interatomic Potential ---------------------
if "${pot} == adp" then "pair_style adp"  "pair_coeff * * Ti.adp Ti" elif "${pot} == eam" "pair_style eam/fs"  "pair_coeff * * Ti2.eam.fs Ti" else "print 'Potential type not recognized.'" quit
pair_style eam/fs
pair_coeff * * Ti2.eam.fs Ti

compute apE all pe/atom

if "${pot} == adp" then  "dump difDump0 all custom 1 ${pathName}/dump_files/${pot}difDump.txt id x y z vx vy vz #fx fy fz c_apE" "dump_modify difDump0 sort id" #pbc yes

dump Dump0 all custom 1 ${pathName}/dump_files/${pot}Dump.txt id x y z vx vy vz fx fy fz c_apE
dump Dump0 all custom 1 eam1000/dump_files/${pot}Dump.txt id x y z vx vy vz fx fy fz c_apE
dump Dump0 all custom 1 eam1000/dump_files/eamDump.txt id x y z vx vy vz fx fy fz c_apE
dump_modify Dump0 sort id #pbc yes

run 0
WARNING: No fixes defined, atoms won't move (src/verlet.cpp:52)
Neighbor list info ...
  update every 1 steps, delay 0 steps, check yes
  max neighbors/atom: 2000, page size: 100000
  master list distance cutoff = 8.9
  ghost atom cutoff = 8.9
  binsize = 4.45, bins = 2 4 4
  1 neighbor lists, perpetual/occasional/extra = 1 0 0
  (1) pair eam/fs, perpetual
      attributes: half, newton on
      pair build: half/bin/atomonly/newton
      stencil: half/bin/3d/newton
      bin: standard
Per MPI rank memory allocation (min/avg/max) = 4.912 | 4.912 | 4.912 Mbytes
Step Temp E_pair E_mol TotEng Press 
       0          300   -566.61698            0   -562.46773    4230.0921 
Loop time of 7.49e-07 on 1 procs for 0 steps with 108 atoms

400.5% CPU use with 1 MPI tasks x no OpenMP threads

MPI task timing breakdown:
Section |  min time  |  avg time  |  max time  |%varavg| %total
---------------------------------------------------------------
Pair    | 0          | 0          | 0          |   0.0 |  0.00
Neigh   | 0          | 0          | 0          |   0.0 |  0.00
Comm    | 0          | 0          | 0          |   0.0 |  0.00
Output  | 0          | 0          | 0          |   0.0 |  0.00
Modify  | 0          | 0          | 0          |   0.0 |  0.00
Other   |            | 7.49e-07   |            |       |100.00

Nlocal:    108 ave 108 max 108 min
Histogram: 1 0 0 0 0 0 0 0 0 0
Nghost:    1628 ave 1628 max 1628 min
Histogram: 1 0 0 0 0 0 0 0 0 0
Neighs:    8532 ave 8532 max 8532 min
Histogram: 1 0 0 0 0 0 0 0 0 0

Total # of neighbors = 8532
Ave neighs/atom = 79
Neighbor list builds = 0
Dangerous builds = 0

clear

#Begin loop
#--------------------------------------------------
label       loop

variable    loopEnd equal (${tStep}/${sRate})*${nRuns}
variable    loopEnd equal (1000/${sRate})*${nRuns}
variable    loopEnd equal (1000/100)*${nRuns}
variable    loopEnd equal (1000/100)*4
variable    loopExit equal ${tStep}*${nRuns}
variable    loopExit equal 1000*${nRuns}
variable    loopExit equal 1000*4
variable    a loop ${loopEnd}
variable    a loop 40

variable    aScaled equal $a*${sRate}
variable    aScaled equal 1*${sRate}
variable    aScaled equal 1*100

print       "timestep = ${aScaled}"
timestep = 100
if          "${aScaled} > ${loopExit}" then "jump SELF break"

# ---------- Create Atoms ------------------------------
read_restart ${pathName}/restart_files/ref.restart.${aScaled}
read_restart eam1000/restart_files/ref.restart.${aScaled}
read_restart eam1000/restart_files/ref.restart.100
  restoring atom style atomic from restart
  orthogonal box = (0 0 0) to (8.85 15.3286 14.058)
  1 by 1 by 1 MPI processor grid
  pair style eam/fs stores no restart info
  108 atoms
  read_restart CPU = 0.000124497 secs

print "Reading from restart file ref.restart.${aScaled}"
Reading from restart file ref.restart.100

neighbor 2.0 bin
neigh_modify every 1 delay 0 check yes

# ---------- Define Interatomic Potential ---------------------
if "${pot} == adp" then "pair_style adp"  "pair_coeff * * Ti.adp Ti" elif "${pot} == eam" "pair_style eam/fs"  "pair_coeff * * Ti2.eam.fs Ti" else "print 'Potential type not recognized.'" quit
pair_style eam/fs
pair_coeff * * Ti2.eam.fs Ti

compute apE all pe/atom

#Create additional dump file containing only pos/vel data only if using adp potential
if "${pot} == adp" then  "dump difDumploop all custom 1 ${pathName}/dump_files/${pot}difDumploop.${aScaled}.txt id x y z vx vy vz #fx fy fz c_apE" "dump_modify difDumploop sort id" #pbc yes

dump Dumploop all custom 1 ${pathName}/dump_files/${pot}Dumploop.${aScaled}.txt id x y z vx vy vz fx fy fz c_apE
dump Dumploop all custom 1 eam1000/dump_files/${pot}Dumploop.${aScaled}.txt id x y z vx vy vz fx fy fz c_apE
dump Dumploop all custom 1 eam1000/dump_files/eamDumploop.${aScaled}.txt id x y z vx vy vz fx fy fz c_apE
dump Dumploop all custom 1 eam1000/dump_files/eamDumploop.100.txt id x y z vx vy vz fx fy fz c_apE
dump_modify Dumploop sort id #pbc yes

run 0
WARNING: No fixes defined, atoms won't move (src/verlet.cpp:52)
Unused restart file global fix info:
  fix style: nvt, fix ID: 1
Neighbor list info ...
  update every 1 steps, delay 0 steps, check yes
  max neighbors/atom: 2000, page size: 100000
  master list distance cutoff = 8.9
  ghost atom cutoff = 8.9
  binsize = 4.45, bins = 2 4 4
  1 neighbor lists, perpetual/occasional/extra = 1 0 0
  (1) pair eam/fs, perpetual
      attributes: half, newton on
      pair build: half/bin/atomonly/newton
      stencil: half/bin/3d/newton
      bin: standard
Per MPI rank memory allocation (min/avg/max) = 4.91 | 4.91 | 4.91 Mbytes
Step Temp E_pair E_mol TotEng Press 
     100    177.47497   -564.33127            0   -561.87664    6126.4421 
Loop time of 7.27e-07 on 1 procs for 0 steps with 108 atoms

412.7% CPU use with 1 MPI tasks x no OpenMP threads

MPI task timing breakdown:
Section |  min time  |  avg time  |  max time  |%varavg| %total
---------------------------------------------------------------
Pair    | 0          | 0          | 0          |   0.0 |  0.00
Neigh   | 0          | 0          | 0          |   0.0 |  0.00
Comm    | 0          | 0          | 0          |   0.0 |  0.00
Output  | 0          | 0          | 0          |   0.0 |  0.00
Modify  | 0          | 0          | 0          |   0.0 |  0.00
Other   |            | 7.27e-07   |            |       |100.00

Nlocal:    108 ave 108 max 108 min
Histogram: 1 0 0 0 0 0 0 0 0 0
Nghost:    1576 ave 1576 max 1576 min
Histogram: 1 0 0 0 0 0 0 0 0 0
Neighs:    8406 ave 8406 max 8406 min
Histogram: 1 0 0 0 0 0 0 0 0 0

Total # of neighbors = 8406
Ave neighs/atom = 77.8333
Neighbor list builds = 0
Dangerous builds = 0

#append adpDump.txt with current snapshot of adpDumploop.txt
shell cat ${pathName}/dump_files/${pot}Dumploop.${aScaled}.txt >> ${pathName}/dump_files/${pot}Dump.txt
shell cat eam1000/dump_files/${pot}Dumploop.${aScaled}.txt >> ${pathName}/dump_files/${pot}Dump.txt
shell cat eam1000/dump_files/eamDumploop.${aScaled}.txt >> ${pathName}/dump_files/${pot}Dump.txt
shell cat eam1000/dump_files/eamDumploop.100.txt >> ${pathName}/dump_files/${pot}Dump.txt
shell cat eam1000/dump_files/eamDumploop.100.txt >> eam1000/dump_files/${pot}Dump.txt
shell cat eam1000/dump_files/eamDumploop.100.txt >> eam1000/dump_files/eamDump.txt

if "${pot} == adp" then  "shell cat ${pathName}/dump_files/${pot}difDumploop.${aScaled}.txt >> ${pathName}/dump_files/${pot}difDump.txt"

#delete intermediate adp dump file
shell rm ${pathName}/dump_files/${pot}Dumploop.${aScaled}.txt
shell rm eam1000/dump_files/${pot}Dumploop.${aScaled}.txt
shell rm eam1000/dump_files/eamDumploop.${aScaled}.txt
shell rm eam1000/dump_files/eamDumploop.100.txt

if "${pot} == adp" then  "shell rm ${pathName}/dump_files/${pot}difDumploop.${aScaled}.txt"

clear

next        a
jump        SELF loop

variable    loopEnd equal (${tStep}/${sRate})*${nRuns}
variable    loopEnd equal (1000/${sRate})*${nRuns}
variable    loopEnd equal (1000/100)*${nRuns}
variable    loopEnd equal (1000/100)*4
variable    loopExit equal ${tStep}*${nRuns}
variable    loopExit equal 1000*${nRuns}
variable    loopExit equal 1000*4
variable    a loop ${loopEnd}
variable    a loop 40

variable    aScaled equal $a*${sRate}
variable    aScaled equal 2*${sRate}
variable    aScaled equal 2*100

print       "timestep = ${aScaled}"
timestep = 200
if          "${aScaled} > ${loopExit}" then "jump SELF break"

# ---------- Create Atoms ------------------------------
read_restart ${pathName}/restart_files/ref.restart.${aScaled}
read_restart eam1000/restart_files/ref.restart.${aScaled}
read_restart eam1000/restart_files/ref.restart.200
  restoring atom style atomic from restart
  orthogonal box = (0 0 0) to (8.85 15.3286 14.058)
  1 by 1 by 1 MPI processor grid
  pair style eam/fs stores no restart info
  108 atoms
  read_restart CPU = 0.000175778 secs

print "Reading from restart file ref.restart.${aScaled}"
Reading from restart file ref.restart.200

neighbor 2.0 bin
neigh_modify every 1 delay 0 check yes

# ---------- Define Interatomic Potential ---------------------
if "${pot} == adp" then "pair_style adp"  "pair_coeff * * Ti.adp Ti" elif "${pot} == eam" "pair_style eam/fs"  "pair_coeff * * Ti2.eam.fs Ti" else "print 'Potential type not recognized.'" quit
pair_style eam/fs
pair_coeff * * Ti2.eam.fs Ti

compute apE all pe/atom

#Create additional dump file containing only pos/vel data only if using adp potential
if "${pot} == adp" then  "dump difDumploop all custom 1 ${pathName}/dump_files/${pot}difDumploop.${aScaled}.txt id x y z vx vy vz #fx fy fz c_apE" "dump_modify difDumploop sort id" #pbc yes

dump Dumploop all custom 1 ${pathName}/dump_files/${pot}Dumploop.${aScaled}.txt id x y z vx vy vz fx fy fz c_apE
dump Dumploop all custom 1 eam1000/dump_files/${pot}Dumploop.${aScaled}.txt id x y z vx vy vz fx fy fz c_apE
dump Dumploop all custom 1 eam1000/dump_files/eamDumploop.${aScaled}.txt id x y z vx vy vz fx fy fz c_apE
dump Dumploop all custom 1 eam1000/dump_files/eamDumploop.200.txt id x y z vx vy vz fx fy fz c_apE
dump_modify Dumploop sort id #pbc yes

run 0
WARNING: No fixes defined, atoms won't move (src/verlet.cpp:52)
Unused restart file global fix info:
  fix style: nvt, fix ID: 1
Neighbor list info ...
  update every 1 steps, delay 0 steps, check yes
  max neighbors/atom: 2000, page size: 100000
  master list distance cutoff = 8.9
  ghost atom cutoff = 8.9
  binsize = 4.45, bins = 2 4 4
  1 neighbor lists, perpetual/occasional/extra = 1 0 0
  (1) pair eam/fs, perpetual
      attributes: half, newton on
      pair build: half/bin/atomonly/newton
      stencil: half/bin/3d/newton
      bin: standard
Per MPI rank memory allocation (min/avg/max) = 4.91 | 4.91 | 4.91 Mbytes
Step Temp E_pair E_mol TotEng Press 
     200    191.69156   -563.17852            0   -560.52727    3958.1377 
Loop time of 7.13e-07 on 1 procs for 0 steps with 108 atoms

280.5% CPU use with 1 MPI tasks x no OpenMP threads

MPI task timing breakdown:
Section |  min time  |  avg time  |  max time  |%varavg| %total
---------------------------------------------------------------
Pair    | 0          | 0          | 0          |   0.0 |  0.00
Neigh   | 0          | 0          | 0          |   0.0 |  0.00
Comm    | 0          | 0          | 0          |   0.0 |  0.00
Output  | 0          | 0          | 0          |   0.0 |  0.00
Modify  | 0          | 0          | 0          |   0.0 |  0.00
Other   |            | 7.13e-07   |            |       |100.00

Nlocal:    108 ave 108 max 108 min
Histogram: 1 0 0 0 0 0 0 0 0 0
Nghost:    1579 ave 1579 max 1579 min
Histogram: 1 0 0 0 0 0 0 0 0 0
Neighs:    8404 ave 8404 max 8404 min
Histogram: 1 0 0 0 0 0 0 0 0 0

Total # of neighbors = 8404
Ave neighs/atom = 77.8148
Neighbor list builds = 0
Dangerous builds = 0

#append adpDump.txt with current snapshot of adpDumploop.txt
shell cat ${pathName}/dump_files/${pot}Dumploop.${aScaled}.txt >> ${pathName}/dump_files/${pot}Dump.txt
shell cat eam1000/dump_files/${pot}Dumploop.${aScaled}.txt >> ${pathName}/dump_files/${pot}Dump.txt
shell cat eam1000/dump_files/eamDumploop.${aScaled}.txt >> ${pathName}/dump_files/${pot}Dump.txt
shell cat eam1000/dump_files/eamDumploop.200.txt >> ${pathName}/dump_files/${pot}Dump.txt
shell cat eam1000/dump_files/eamDumploop.200.txt >> eam1000/dump_files/${pot}Dump.txt
shell cat eam1000/dump_files/eamDumploop.200.txt >> eam1000/dump_files/eamDump.txt

if "${pot} == adp" then  "shell cat ${pathName}/dump_files/${pot}difDumploop.${aScaled}.txt >> ${pathName}/dump_files/${pot}difDump.txt"

#delete intermediate adp dump file
shell rm ${pathName}/dump_files/${pot}Dumploop.${aScaled}.txt
shell rm eam1000/dump_files/${pot}Dumploop.${aScaled}.txt
shell rm eam1000/dump_files/eamDumploop.${aScaled}.txt
shell rm eam1000/dump_files/eamDumploop.200.txt

if "${pot} == adp" then  "shell rm ${pathName}/dump_files/${pot}difDumploop.${aScaled}.txt"

clear

next        a
jump        SELF loop

variable    loopEnd equal (${tStep}/${sRate})*${nRuns}
variable    loopEnd equal (1000/${sRate})*${nRuns}
variable    loopEnd equal (1000/100)*${nRuns}
variable    loopEnd equal (1000/100)*4
variable    loopExit equal ${tStep}*${nRuns}
variable    loopExit equal 1000*${nRuns}
variable    loopExit equal 1000*4
variable    a loop ${loopEnd}
variable    a loop 40

variable    aScaled equal $a*${sRate}
variable    aScaled equal 3*${sRate}
variable    aScaled equal 3*100

print       "timestep = ${aScaled}"
timestep = 300
if          "${aScaled} > ${loopExit}" then "jump SELF break"

# ---------- Create Atoms ------------------------------
read_restart ${pathName}/restart_files/ref.restart.${aScaled}
read_restart eam1000/restart_files/ref.restart.${aScaled}
read_restart eam1000/restart_files/ref.restart.300
  restoring atom style atomic from restart
  orthogonal box = (0 0 0) to (8.85 15.3286 14.058)
  1 by 1 by 1 MPI processor grid
  pair style eam/fs stores no restart info
  108 atoms
  read_restart CPU = 0.000149905 secs

print "Reading from restart file ref.restart.${aScaled}"
Reading from restart file ref.restart.300

neighbor 2.0 bin
neigh_modify every 1 delay 0 check yes

# ---------- Define Interatomic Potential ---------------------
if "${pot} == adp" then "pair_style adp"  "pair_coeff * * Ti.adp Ti" elif "${pot} == eam" "pair_style eam/fs"  "pair_coeff * * Ti2.eam.fs Ti" else "print 'Potential type not recognized.'" quit
pair_style eam/fs
pair_coeff * * Ti2.eam.fs Ti

compute apE all pe/atom

#Create additional dump file containing only pos/vel data only if using adp potential
if "${pot} == adp" then  "dump difDumploop all custom 1 ${pathName}/dump_files/${pot}difDumploop.${aScaled}.txt id x y z vx vy vz #fx fy fz c_apE" "dump_modify difDumploop sort id" #pbc yes

dump Dumploop all custom 1 ${pathName}/dump_files/${pot}Dumploop.${aScaled}.txt id x y z vx vy vz fx fy fz c_apE
dump Dumploop all custom 1 eam1000/dump_files/${pot}Dumploop.${aScaled}.txt id x y z vx vy vz fx fy fz c_apE
dump Dumploop all custom 1 eam1000/dump_files/eamDumploop.${aScaled}.txt id x y z vx vy vz fx fy fz c_apE
dump Dumploop all custom 1 eam1000/dump_files/eamDumploop.300.txt id x y z vx vy vz fx fy fz c_apE
dump_modify Dumploop sort id #pbc yes

run 0
WARNING: No fixes defined, atoms won't move (src/verlet.cpp:52)
Unused restart file global fix info:
  fix style: nvt, fix ID: 1
Neighbor list info ...
  update every 1 steps, delay 0 steps, check yes
  max neighbors/atom: 2000, page size: 100000
  master list distance cutoff = 8.9
  ghost atom cutoff = 8.9
  binsize = 4.45, bins = 2 4 4
  1 neighbor lists, perpetual/occasional/extra = 1 0 0
  (1) pair eam/fs, perpetual
      attributes: half, newton on
      pair build: half/bin/atomonly/newton
      stencil: half/bin/3d/newton
      bin: standard
Per MPI rank memory allocation (min/avg/max) = 4.91 | 4.91 | 4.91 Mbytes
Step Temp E_pair E_mol TotEng Press 
     300    325.74501   -563.08848            0   -558.58315    3720.7798 
Loop time of 7.52e-07 on 1 procs for 0 steps with 108 atoms

266.0% CPU use with 1 MPI tasks x no OpenMP threads

MPI task timing breakdown:
Section |  min time  |  avg time  |  max time  |%varavg| %total
---------------------------------------------------------------
Pair    | 0          | 0          | 0          |   0.0 |  0.00
Neigh   | 0          | 0          | 0          |   0.0 |  0.00
Comm    | 0          | 0          | 0          |   0.0 |  0.00
Output  | 0          | 0          | 0          |   0.0 |  0.00
Modify  | 0          | 0          | 0          |   0.0 |  0.00
Other   |            | 7.52e-07   |            |       |100.00

Nlocal:    108 ave 108 max 108 min
Histogram: 1 0 0 0 0 0 0 0 0 0
Nghost:    1586 ave 1586 max 1586 min
Histogram: 1 0 0 0 0 0 0 0 0 0
Neighs:    8411 ave 8411 max 8411 min
Histogram: 1 0 0 0 0 0 0 0 0 0

Total # of neighbors = 8411
Ave neighs/atom = 77.8796
Neighbor list builds = 0
Dangerous builds = 0

#append adpDump.txt with current snapshot of adpDumploop.txt
shell cat ${pathName}/dump_files/${pot}Dumploop.${aScaled}.txt >> ${pathName}/dump_files/${pot}Dump.txt
shell cat eam1000/dump_files/${pot}Dumploop.${aScaled}.txt >> ${pathName}/dump_files/${pot}Dump.txt
shell cat eam1000/dump_files/eamDumploop.${aScaled}.txt >> ${pathName}/dump_files/${pot}Dump.txt
shell cat eam1000/dump_files/eamDumploop.300.txt >> ${pathName}/dump_files/${pot}Dump.txt
shell cat eam1000/dump_files/eamDumploop.300.txt >> eam1000/dump_files/${pot}Dump.txt
shell cat eam1000/dump_files/eamDumploop.300.txt >> eam1000/dump_files/eamDump.txt

if "${pot} == adp" then  "shell cat ${pathName}/dump_files/${pot}difDumploop.${aScaled}.txt >> ${pathName}/dump_files/${pot}difDump.txt"

#delete intermediate adp dump file
shell rm ${pathName}/dump_files/${pot}Dumploop.${aScaled}.txt
shell rm eam1000/dump_files/${pot}Dumploop.${aScaled}.txt
shell rm eam1000/dump_files/eamDumploop.${aScaled}.txt
shell rm eam1000/dump_files/eamDumploop.300.txt

if "${pot} == adp" then  "shell rm ${pathName}/dump_files/${pot}difDumploop.${aScaled}.txt"

clear

next        a
jump        SELF loop

variable    loopEnd equal (${tStep}/${sRate})*${nRuns}
variable    loopEnd equal (1000/${sRate})*${nRuns}
variable    loopEnd equal (1000/100)*${nRuns}
variable    loopEnd equal (1000/100)*4
variable    loopExit equal ${tStep}*${nRuns}
variable    loopExit equal 1000*${nRuns}
variable    loopExit equal 1000*4
variable    a loop ${loopEnd}
variable    a loop 40

variable    aScaled equal $a*${sRate}
variable    aScaled equal 4*${sRate}
variable    aScaled equal 4*100

print       "timestep = ${aScaled}"
timestep = 400
if          "${aScaled} > ${loopExit}" then "jump SELF break"

# ---------- Create Atoms ------------------------------
read_restart ${pathName}/restart_files/ref.restart.${aScaled}
read_restart eam1000/restart_files/ref.restart.${aScaled}
read_restart eam1000/restart_files/ref.restart.400
  restoring atom style atomic from restart
  orthogonal box = (0 0 0) to (8.85 15.3286 14.058)
  1 by 1 by 1 MPI processor grid
  pair style eam/fs stores no restart info
  108 atoms
  read_restart CPU = 0.000136258 secs

print "Reading from restart file ref.restart.${aScaled}"
Reading from restart file ref.restart.400

neighbor 2.0 bin
neigh_modify every 1 delay 0 check yes

# ---------- Define Interatomic Potential ---------------------
if "${pot} == adp" then "pair_style adp"  "pair_coeff * * Ti.adp Ti" elif "${pot} == eam" "pair_style eam/fs"  "pair_coeff * * Ti2.eam.fs Ti" else "print 'Potential type not recognized.'" quit
pair_style eam/fs
pair_coeff * * Ti2.eam.fs Ti

compute apE all pe/atom

#Create additional dump file containing only pos/vel data only if using adp potential
if "${pot} == adp" then  "dump difDumploop all custom 1 ${pathName}/dump_files/${pot}difDumploop.${aScaled}.txt id x y z vx vy vz #fx fy fz c_apE" "dump_modify difDumploop sort id" #pbc yes

dump Dumploop all custom 1 ${pathName}/dump_files/${pot}Dumploop.${aScaled}.txt id x y z vx vy vz fx fy fz c_apE
dump Dumploop all custom 1 eam1000/dump_files/${pot}Dumploop.${aScaled}.txt id x y z vx vy vz fx fy fz c_apE
dump Dumploop all custom 1 eam1000/dump_files/eamDumploop.${aScaled}.txt id x y z vx vy vz fx fy fz c_apE
dump Dumploop all custom 1 eam1000/dump_files/eamDumploop.400.txt id x y z vx vy vz fx fy fz c_apE
dump_modify Dumploop sort id #pbc yes

run 0
WARNING: No fixes defined, atoms won't move (src/verlet.cpp:52)
Unused restart file global fix info:
  fix style: nvt, fix ID: 1
Neighbor list info ...
  update every 1 steps, delay 0 steps, check yes
  max neighbors/atom: 2000, page size: 100000
  master list distance cutoff = 8.9
  ghost atom cutoff = 8.9
  binsize = 4.45, bins = 2 4 4
  1 neighbor lists, perpetual/occasional/extra = 1 0 0
  (1) pair eam/fs, perpetual
      attributes: half, newton on
      pair build: half/bin/atomonly/newton
      stencil: half/bin/3d/newton
      bin: standard
Per MPI rank memory allocation (min/avg/max) = 4.91 | 4.91 | 4.91 Mbytes
Step Temp E_pair E_mol TotEng Press 
     400    352.91724   -561.19231            0   -556.31117    13695.742 
Loop time of 9.88e-07 on 1 procs for 0 steps with 108 atoms

202.4% CPU use with 1 MPI tasks x no OpenMP threads

MPI task timing breakdown:
Section |  min time  |  avg time  |  max time  |%varavg| %total
---------------------------------------------------------------
Pair    | 0          | 0          | 0          |   0.0 |  0.00
Neigh   | 0          | 0          | 0          |   0.0 |  0.00
Comm    | 0          | 0          | 0          |   0.0 |  0.00
Output  | 0          | 0          | 0          |   0.0 |  0.00
Modify  | 0          | 0          | 0          |   0.0 |  0.00
Other   |            | 9.88e-07   |            |       |100.00

Nlocal:    108 ave 108 max 108 min
Histogram: 1 0 0 0 0 0 0 0 0 0
Nghost:    1584 ave 1584 max 1584 min
Histogram: 1 0 0 0 0 0 0 0 0 0
Neighs:    8444 ave 8444 max 8444 min
Histogram: 1 0 0 0 0 0 0 0 0 0

Total # of neighbors = 8444
Ave neighs/atom = 78.1852
Neighbor list builds = 0
Dangerous builds = 0

#append adpDump.txt with current snapshot of adpDumploop.txt
shell cat ${pathName}/dump_files/${pot}Dumploop.${aScaled}.txt >> ${pathName}/dump_files/${pot}Dump.txt
shell cat eam1000/dump_files/${pot}Dumploop.${aScaled}.txt >> ${pathName}/dump_files/${pot}Dump.txt
shell cat eam1000/dump_files/eamDumploop.${aScaled}.txt >> ${pathName}/dump_files/${pot}Dump.txt
shell cat eam1000/dump_files/eamDumploop.400.txt >> ${pathName}/dump_files/${pot}Dump.txt
shell cat eam1000/dump_files/eamDumploop.400.txt >> eam1000/dump_files/${pot}Dump.txt
shell cat eam1000/dump_files/eamDumploop.400.txt >> eam1000/dump_files/eamDump.txt

if "${pot} == adp" then  "shell cat ${pathName}/dump_files/${pot}difDumploop.${aScaled}.txt >> ${pathName}/dump_files/${pot}difDump.txt"

#delete intermediate adp dump file
shell rm ${pathName}/dump_files/${pot}Dumploop.${aScaled}.txt
shell rm eam1000/dump_files/${pot}Dumploop.${aScaled}.txt
shell rm eam1000/dump_files/eamDumploop.${aScaled}.txt
shell rm eam1000/dump_files/eamDumploop.400.txt

if "${pot} == adp" then  "shell rm ${pathName}/dump_files/${pot}difDumploop.${aScaled}.txt"

clear

next        a
jump        SELF loop

variable    loopEnd equal (${tStep}/${sRate})*${nRuns}
variable    loopEnd equal (1000/${sRate})*${nRuns}
variable    loopEnd equal (1000/100)*${nRuns}
variable    loopEnd equal (1000/100)*4
variable    loopExit equal ${tStep}*${nRuns}
variable    loopExit equal 1000*${nRuns}
variable    loopExit equal 1000*4
variable    a loop ${loopEnd}
variable    a loop 40

variable    aScaled equal $a*${sRate}
variable    aScaled equal 5*${sRate}
variable    aScaled equal 5*100

print       "timestep = ${aScaled}"
timestep = 500
if          "${aScaled} > ${loopExit}" then "jump SELF break"

# ---------- Create Atoms ------------------------------
read_restart ${pathName}/restart_files/ref.restart.${aScaled}
read_restart eam1000/restart_files/ref.restart.${aScaled}
read_restart eam1000/restart_files/ref.restart.500
  restoring atom style atomic from restart
  orthogonal box = (0 0 0) to (8.85 15.3286 14.058)
  1 by 1 by 1 MPI processor grid
  pair style eam/fs stores no restart info
  108 atoms
  read_restart CPU = 0.000164228 secs

print "Reading from restart file ref.restart.${aScaled}"
Reading from restart file ref.restart.500

neighbor 2.0 bin
neigh_modify every 1 delay 0 check yes

# ---------- Define Interatomic Potential ---------------------
if "${pot} == adp" then "pair_style adp"  "pair_coeff * * Ti.adp Ti" elif "${pot} == eam" "pair_style eam/fs"  "pair_coeff * * Ti2.eam.fs Ti" else "print 'Potential type not recognized.'" quit
pair_style eam/fs
pair_coeff * * Ti2.eam.fs Ti

compute apE all pe/atom

#Create additional dump file containing only pos/vel data only if using adp potential
if "${pot} == adp" then  "dump difDumploop all custom 1 ${pathName}/dump_files/${pot}difDumploop.${aScaled}.txt id x y z vx vy vz #fx fy fz c_apE" "dump_modify difDumploop sort id" #pbc yes

dump Dumploop all custom 1 ${pathName}/dump_files/${pot}Dumploop.${aScaled}.txt id x y z vx vy vz fx fy fz c_apE
dump Dumploop all custom 1 eam1000/dump_files/${pot}Dumploop.${aScaled}.txt id x y z vx vy vz fx fy fz c_apE
dump Dumploop all custom 1 eam1000/dump_files/eamDumploop.${aScaled}.txt id x y z vx vy vz fx fy fz c_apE
dump Dumploop all custom 1 eam1000/dump_files/eamDumploop.500.txt id x y z vx vy vz fx fy fz c_apE
dump_modify Dumploop sort id #pbc yes

run 0
WARNING: No fixes defined, atoms won't move (src/verlet.cpp:52)
Unused restart file global fix info:
  fix style: nvt, fix ID: 1
Neighbor list info ...
  update every 1 steps, delay 0 steps, check yes
  max neighbors/atom: 2000, page size: 100000
  master list distance cutoff = 8.9
  ghost atom cutoff = 8.9
  binsize = 4.45, bins = 2 4 4
  1 neighbor lists, perpetual/occasional/extra = 1 0 0
  (1) pair eam/fs, perpetual
      attributes: half, newton on
      pair build: half/bin/atomonly/newton
      stencil: half/bin/3d/newton
      bin: standard
Per MPI rank memory allocation (min/avg/max) = 4.91 | 4.91 | 4.91 Mbytes
Step Temp E_pair E_mol TotEng Press 
     500    442.65149   -559.96395            0   -553.84171    12289.189 
Loop time of 7.79e-07 on 1 procs for 0 steps with 108 atoms

256.7% CPU use with 1 MPI tasks x no OpenMP threads

MPI task timing breakdown:
Section |  min time  |  avg time  |  max time  |%varavg| %total
---------------------------------------------------------------
Pair    | 0          | 0          | 0          |   0.0 |  0.00
Neigh   | 0          | 0          | 0          |   0.0 |  0.00
Comm    | 0          | 0          | 0          |   0.0 |  0.00
Output  | 0          | 0          | 0          |   0.0 |  0.00
Modify  | 0          | 0          | 0          |   0.0 |  0.00
Other   |            | 7.79e-07   |            |       |100.00

Nlocal:    108 ave 108 max 108 min
Histogram: 1 0 0 0 0 0 0 0 0 0
Nghost:    1572 ave 1572 max 1572 min
Histogram: 1 0 0 0 0 0 0 0 0 0
Neighs:    8441 ave 8441 max 8441 min
Histogram: 1 0 0 0 0 0 0 0 0 0

Total # of neighbors = 8441
Ave neighs/atom = 78.1574
Neighbor list builds = 0
Dangerous builds = 0

#append adpDump.txt with current snapshot of adpDumploop.txt
shell cat ${pathName}/dump_files/${pot}Dumploop.${aScaled}.txt >> ${pathName}/dump_files/${pot}Dump.txt
shell cat eam1000/dump_files/${pot}Dumploop.${aScaled}.txt >> ${pathName}/dump_files/${pot}Dump.txt
shell cat eam1000/dump_files/eamDumploop.${aScaled}.txt >> ${pathName}/dump_files/${pot}Dump.txt
shell cat eam1000/dump_files/eamDumploop.500.txt >> ${pathName}/dump_files/${pot}Dump.txt
shell cat eam1000/dump_files/eamDumploop.500.txt >> eam1000/dump_files/${pot}Dump.txt
shell cat eam1000/dump_files/eamDumploop.500.txt >> eam1000/dump_files/eamDump.txt

if "${pot} == adp" then  "shell cat ${pathName}/dump_files/${pot}difDumploop.${aScaled}.txt >> ${pathName}/dump_files/${pot}difDump.txt"

#delete intermediate adp dump file
shell rm ${pathName}/dump_files/${pot}Dumploop.${aScaled}.txt
shell rm eam1000/dump_files/${pot}Dumploop.${aScaled}.txt
shell rm eam1000/dump_files/eamDumploop.${aScaled}.txt
shell rm eam1000/dump_files/eamDumploop.500.txt

if "${pot} == adp" then  "shell rm ${pathName}/dump_files/${pot}difDumploop.${aScaled}.txt"

clear

next        a
jump        SELF loop

variable    loopEnd equal (${tStep}/${sRate})*${nRuns}
variable    loopEnd equal (1000/${sRate})*${nRuns}
variable    loopEnd equal (1000/100)*${nRuns}
variable    loopEnd equal (1000/100)*4
variable    loopExit equal ${tStep}*${nRuns}
variable    loopExit equal 1000*${nRuns}
variable    loopExit equal 1000*4
variable    a loop ${loopEnd}
variable    a loop 40

variable    aScaled equal $a*${sRate}
variable    aScaled equal 6*${sRate}
variable    aScaled equal 6*100

print       "timestep = ${aScaled}"
timestep = 600
if          "${aScaled} > ${loopExit}" then "jump SELF break"

# ---------- Create Atoms ------------------------------
read_restart ${pathName}/restart_files/ref.restart.${aScaled}
read_restart eam1000/restart_files/ref.restart.${aScaled}
read_restart eam1000/restart_files/ref.restart.600
  restoring atom style atomic from restart
  orthogonal box = (0 0 0) to (8.85 15.3286 14.058)
  1 by 1 by 1 MPI processor grid
  pair style eam/fs stores no restart info
  108 atoms
  read_restart CPU = 0.000174781 secs

print "Reading from restart file ref.restart.${aScaled}"
Reading from restart file ref.restart.600

neighbor 2.0 bin
neigh_modify every 1 delay 0 check yes

# ---------- Define Interatomic Potential ---------------------
if "${pot} == adp" then "pair_style adp"  "pair_coeff * * Ti.adp Ti" elif "${pot} == eam" "pair_style eam/fs"  "pair_coeff * * Ti2.eam.fs Ti" else "print 'Potential type not recognized.'" quit
pair_style eam/fs
pair_coeff * * Ti2.eam.fs Ti

compute apE all pe/atom

#Create additional dump file containing only pos/vel data only if using adp potential
if "${pot} == adp" then  "dump difDumploop all custom 1 ${pathName}/dump_files/${pot}difDumploop.${aScaled}.txt id x y z vx vy vz #fx fy fz c_apE" "dump_modify difDumploop sort id" #pbc yes

dump Dumploop all custom 1 ${pathName}/dump_files/${pot}Dumploop.${aScaled}.txt id x y z vx vy vz fx fy fz c_apE
dump Dumploop all custom 1 eam1000/dump_files/${pot}Dumploop.${aScaled}.txt id x y z vx vy vz fx fy fz c_apE
dump Dumploop all custom 1 eam1000/dump_files/eamDumploop.${aScaled}.txt id x y z vx vy vz fx fy fz c_apE
dump Dumploop all custom 1 eam1000/dump_files/eamDumploop.600.txt id x y z vx vy vz fx fy fz c_apE
dump_modify Dumploop sort id #pbc yes

run 0
WARNING: No fixes defined, atoms won't move (src/verlet.cpp:52)
Unused restart file global fix info:
  fix style: nvt, fix ID: 1
Neighbor list info ...
  update every 1 steps, delay 0 steps, check yes
  max neighbors/atom: 2000, page size: 100000
  master list distance cutoff = 8.9
  ghost atom cutoff = 8.9
  binsize = 4.45, bins = 2 4 4
  1 neighbor lists, perpetual/occasional/extra = 1 0 0
  (1) pair eam/fs, perpetual
      attributes: half, newton on
      pair build: half/bin/atomonly/newton
      stencil: half/bin/3d/newton
      bin: standard
Per MPI rank memory allocation (min/avg/max) = 4.908 | 4.908 | 4.908 Mbytes
Step Temp E_pair E_mol TotEng Press 
     600    550.86114    -559.3495            0   -551.73063    14668.251 
Loop time of 8.32e-07 on 1 procs for 0 steps with 108 atoms

240.4% CPU use with 1 MPI tasks x no OpenMP threads

MPI task timing breakdown:
Section |  min time  |  avg time  |  max time  |%varavg| %total
---------------------------------------------------------------
Pair    | 0          | 0          | 0          |   0.0 |  0.00
Neigh   | 0          | 0          | 0          |   0.0 |  0.00
Comm    | 0          | 0          | 0          |   0.0 |  0.00
Output  | 0          | 0          | 0          |   0.0 |  0.00
Modify  | 0          | 0          | 0          |   0.0 |  0.00
Other   |            | 8.32e-07   |            |       |100.00

Nlocal:    108 ave 108 max 108 min
Histogram: 1 0 0 0 0 0 0 0 0 0
Nghost:    1548 ave 1548 max 1548 min
Histogram: 1 0 0 0 0 0 0 0 0 0
Neighs:    8479 ave 8479 max 8479 min
Histogram: 1 0 0 0 0 0 0 0 0 0

Total # of neighbors = 8479
Ave neighs/atom = 78.5093
Neighbor list builds = 0
Dangerous builds = 0

#append adpDump.txt with current snapshot of adpDumploop.txt
shell cat ${pathName}/dump_files/${pot}Dumploop.${aScaled}.txt >> ${pathName}/dump_files/${pot}Dump.txt
shell cat eam1000/dump_files/${pot}Dumploop.${aScaled}.txt >> ${pathName}/dump_files/${pot}Dump.txt
shell cat eam1000/dump_files/eamDumploop.${aScaled}.txt >> ${pathName}/dump_files/${pot}Dump.txt
shell cat eam1000/dump_files/eamDumploop.600.txt >> ${pathName}/dump_files/${pot}Dump.txt
shell cat eam1000/dump_files/eamDumploop.600.txt >> eam1000/dump_files/${pot}Dump.txt
shell cat eam1000/dump_files/eamDumploop.600.txt >> eam1000/dump_files/eamDump.txt

if "${pot} == adp" then  "shell cat ${pathName}/dump_files/${pot}difDumploop.${aScaled}.txt >> ${pathName}/dump_files/${pot}difDump.txt"

#delete intermediate adp dump file
shell rm ${pathName}/dump_files/${pot}Dumploop.${aScaled}.txt
shell rm eam1000/dump_files/${pot}Dumploop.${aScaled}.txt
shell rm eam1000/dump_files/eamDumploop.${aScaled}.txt
shell rm eam1000/dump_files/eamDumploop.600.txt

if "${pot} == adp" then  "shell rm ${pathName}/dump_files/${pot}difDumploop.${aScaled}.txt"

clear

next        a
jump        SELF loop

variable    loopEnd equal (${tStep}/${sRate})*${nRuns}
variable    loopEnd equal (1000/${sRate})*${nRuns}
variable    loopEnd equal (1000/100)*${nRuns}
variable    loopEnd equal (1000/100)*4
variable    loopExit equal ${tStep}*${nRuns}
variable    loopExit equal 1000*${nRuns}
variable    loopExit equal 1000*4
variable    a loop ${loopEnd}
variable    a loop 40

variable    aScaled equal $a*${sRate}
variable    aScaled equal 7*${sRate}
variable    aScaled equal 7*100

print       "timestep = ${aScaled}"
timestep = 700
if          "${aScaled} > ${loopExit}" then "jump SELF break"

# ---------- Create Atoms ------------------------------
read_restart ${pathName}/restart_files/ref.restart.${aScaled}
read_restart eam1000/restart_files/ref.restart.${aScaled}
read_restart eam1000/restart_files/ref.restart.700
  restoring atom style atomic from restart
  orthogonal box = (0 0 0) to (8.85 15.3286 14.058)
  1 by 1 by 1 MPI processor grid
  pair style eam/fs stores no restart info
  108 atoms
  read_restart CPU = 0.000147057 secs

print "Reading from restart file ref.restart.${aScaled}"
Reading from restart file ref.restart.700

neighbor 2.0 bin
neigh_modify every 1 delay 0 check yes

# ---------- Define Interatomic Potential ---------------------
if "${pot} == adp" then "pair_style adp"  "pair_coeff * * Ti.adp Ti" elif "${pot} == eam" "pair_style eam/fs"  "pair_coeff * * Ti2.eam.fs Ti" else "print 'Potential type not recognized.'" quit
pair_style eam/fs
pair_coeff * * Ti2.eam.fs Ti

compute apE all pe/atom

#Create additional dump file containing only pos/vel data only if using adp potential
if "${pot} == adp" then  "dump difDumploop all custom 1 ${pathName}/dump_files/${pot}difDumploop.${aScaled}.txt id x y z vx vy vz #fx fy fz c_apE" "dump_modify difDumploop sort id" #pbc yes

dump Dumploop all custom 1 ${pathName}/dump_files/${pot}Dumploop.${aScaled}.txt id x y z vx vy vz fx fy fz c_apE
dump Dumploop all custom 1 eam1000/dump_files/${pot}Dumploop.${aScaled}.txt id x y z vx vy vz fx fy fz c_apE
dump Dumploop all custom 1 eam1000/dump_files/eamDumploop.${aScaled}.txt id x y z vx vy vz fx fy fz c_apE
dump Dumploop all custom 1 eam1000/dump_files/eamDumploop.700.txt id x y z vx vy vz fx fy fz c_apE
dump_modify Dumploop sort id #pbc yes

run 0
WARNING: No fixes defined, atoms won't move (src/verlet.cpp:52)
Unused restart file global fix info:
  fix style: nvt, fix ID: 1
Neighbor list info ...
  update every 1 steps, delay 0 steps, check yes
  max neighbors/atom: 2000, page size: 100000
  master list distance cutoff = 8.9
  ghost atom cutoff = 8.9
  binsize = 4.45, bins = 2 4 4
  1 neighbor lists, perpetual/occasional/extra = 1 0 0
  (1) pair eam/fs, perpetual
      attributes: half, newton on
      pair build: half/bin/atomonly/newton
      stencil: half/bin/3d/newton
      bin: standard
Per MPI rank memory allocation (min/avg/max) = 4.91 | 4.91 | 4.91 Mbytes
Step Temp E_pair E_mol TotEng Press 
     700    581.63411   -558.88043            0   -550.83595    23111.025 
Loop time of 8.39e-07 on 1 procs for 0 steps with 108 atoms

238.4% CPU use with 1 MPI tasks x no OpenMP threads

MPI task timing breakdown:
Section |  min time  |  avg time  |  max time  |%varavg| %total
---------------------------------------------------------------
Pair    | 0          | 0          | 0          |   0.0 |  0.00
Neigh   | 0          | 0          | 0          |   0.0 |  0.00
Comm    | 0          | 0          | 0          |   0.0 |  0.00
Output  | 0          | 0          | 0          |   0.0 |  0.00
Modify  | 0          | 0          | 0          |   0.0 |  0.00
Other   |            | 8.39e-07   |            |       |100.00

Nlocal:    108 ave 108 max 108 min
Histogram: 1 0 0 0 0 0 0 0 0 0
Nghost:    1573 ave 1573 max 1573 min
Histogram: 1 0 0 0 0 0 0 0 0 0
Neighs:    8459 ave 8459 max 8459 min
Histogram: 1 0 0 0 0 0 0 0 0 0

Total # of neighbors = 8459
Ave neighs/atom = 78.3241
Neighbor list builds = 0
Dangerous builds = 0

#append adpDump.txt with current snapshot of adpDumploop.txt
shell cat ${pathName}/dump_files/${pot}Dumploop.${aScaled}.txt >> ${pathName}/dump_files/${pot}Dump.txt
shell cat eam1000/dump_files/${pot}Dumploop.${aScaled}.txt >> ${pathName}/dump_files/${pot}Dump.txt
shell cat eam1000/dump_files/eamDumploop.${aScaled}.txt >> ${pathName}/dump_files/${pot}Dump.txt
shell cat eam1000/dump_files/eamDumploop.700.txt >> ${pathName}/dump_files/${pot}Dump.txt
shell cat eam1000/dump_files/eamDumploop.700.txt >> eam1000/dump_files/${pot}Dump.txt
shell cat eam1000/dump_files/eamDumploop.700.txt >> eam1000/dump_files/eamDump.txt

if "${pot} == adp" then  "shell cat ${pathName}/dump_files/${pot}difDumploop.${aScaled}.txt >> ${pathName}/dump_files/${pot}difDump.txt"

#delete intermediate adp dump file
shell rm ${pathName}/dump_files/${pot}Dumploop.${aScaled}.txt
shell rm eam1000/dump_files/${pot}Dumploop.${aScaled}.txt
shell rm eam1000/dump_files/eamDumploop.${aScaled}.txt
shell rm eam1000/dump_files/eamDumploop.700.txt

if "${pot} == adp" then  "shell rm ${pathName}/dump_files/${pot}difDumploop.${aScaled}.txt"

clear

next        a
jump        SELF loop

variable    loopEnd equal (${tStep}/${sRate})*${nRuns}
variable    loopEnd equal (1000/${sRate})*${nRuns}
variable    loopEnd equal (1000/100)*${nRuns}
variable    loopEnd equal (1000/100)*4
variable    loopExit equal ${tStep}*${nRuns}
variable    loopExit equal 1000*${nRuns}
variable    loopExit equal 1000*4
variable    a loop ${loopEnd}
variable    a loop 40

variable    aScaled equal $a*${sRate}
variable    aScaled equal 8*${sRate}
variable    aScaled equal 8*100

print       "timestep = ${aScaled}"
timestep = 800
if          "${aScaled} > ${loopExit}" then "jump SELF break"

# ---------- Create Atoms ------------------------------
read_restart ${pathName}/restart_files/ref.restart.${aScaled}
read_restart eam1000/restart_files/ref.restart.${aScaled}
read_restart eam1000/restart_files/ref.restart.800
  restoring atom style atomic from restart
  orthogonal box = (0 0 0) to (8.85 15.3286 14.058)
  1 by 1 by 1 MPI processor grid
  pair style eam/fs stores no restart info
  108 atoms
  read_restart CPU = 0.000135158 secs

print "Reading from restart file ref.restart.${aScaled}"
Reading from restart file ref.restart.800

neighbor 2.0 bin
neigh_modify every 1 delay 0 check yes

# ---------- Define Interatomic Potential ---------------------
if "${pot} == adp" then "pair_style adp"  "pair_coeff * * Ti.adp Ti" elif "${pot} == eam" "pair_style eam/fs"  "pair_coeff * * Ti2.eam.fs Ti" else "print 'Potential type not recognized.'" quit
pair_style eam/fs
pair_coeff * * Ti2.eam.fs Ti

compute apE all pe/atom

#Create additional dump file containing only pos/vel data only if using adp potential
if "${pot} == adp" then  "dump difDumploop all custom 1 ${pathName}/dump_files/${pot}difDumploop.${aScaled}.txt id x y z vx vy vz #fx fy fz c_apE" "dump_modify difDumploop sort id" #pbc yes

dump Dumploop all custom 1 ${pathName}/dump_files/${pot}Dumploop.${aScaled}.txt id x y z vx vy vz fx fy fz c_apE
dump Dumploop all custom 1 eam1000/dump_files/${pot}Dumploop.${aScaled}.txt id x y z vx vy vz fx fy fz c_apE
dump Dumploop all custom 1 eam1000/dump_files/eamDumploop.${aScaled}.txt id x y z vx vy vz fx fy fz c_apE
dump Dumploop all custom 1 eam1000/dump_files/eamDumploop.800.txt id x y z vx vy vz fx fy fz c_apE
dump_modify Dumploop sort id #pbc yes

run 0
WARNING: No fixes defined, atoms won't move (src/verlet.cpp:52)
Unused restart file global fix info:
  fix style: nvt, fix ID: 1
Neighbor list info ...
  update every 1 steps, delay 0 steps, check yes
  max neighbors/atom: 2000, page size: 100000
  master list distance cutoff = 8.9
  ghost atom cutoff = 8.9
  binsize = 4.45, bins = 2 4 4
  1 neighbor lists, perpetual/occasional/extra = 1 0 0
  (1) pair eam/fs, perpetual
      attributes: half, newton on
      pair build: half/bin/atomonly/newton
      stencil: half/bin/3d/newton
      bin: standard
Per MPI rank memory allocation (min/avg/max) = 4.91 | 4.91 | 4.91 Mbytes
Step Temp E_pair E_mol TotEng Press 
     800    582.21508   -559.78218            0   -551.72966     15697.43 
Loop time of 6.45e-07 on 1 procs for 0 steps with 108 atoms

310.1% CPU use with 1 MPI tasks x no OpenMP threads

MPI task timing breakdown:
Section |  min time  |  avg time  |  max time  |%varavg| %total
---------------------------------------------------------------
Pair    | 0          | 0          | 0          |   0.0 |  0.00
Neigh   | 0          | 0          | 0          |   0.0 |  0.00
Comm    | 0          | 0          | 0          |   0.0 |  0.00
Output  | 0          | 0          | 0          |   0.0 |  0.00
Modify  | 0          | 0          | 0          |   0.0 |  0.00
Other   |            | 6.45e-07   |            |       |100.00

Nlocal:    108 ave 108 max 108 min
Histogram: 1 0 0 0 0 0 0 0 0 0
Nghost:    1576 ave 1576 max 1576 min
Histogram: 1 0 0 0 0 0 0 0 0 0
Neighs:    8447 ave 8447 max 8447 min
Histogram: 1 0 0 0 0 0 0 0 0 0

Total # of neighbors = 8447
Ave neighs/atom = 78.213
Neighbor list builds = 0
Dangerous builds = 0

#append adpDump.txt with current snapshot of adpDumploop.txt
shell cat ${pathName}/dump_files/${pot}Dumploop.${aScaled}.txt >> ${pathName}/dump_files/${pot}Dump.txt
shell cat eam1000/dump_files/${pot}Dumploop.${aScaled}.txt >> ${pathName}/dump_files/${pot}Dump.txt
shell cat eam1000/dump_files/eamDumploop.${aScaled}.txt >> ${pathName}/dump_files/${pot}Dump.txt
shell cat eam1000/dump_files/eamDumploop.800.txt >> ${pathName}/dump_files/${pot}Dump.txt
shell cat eam1000/dump_files/eamDumploop.800.txt >> eam1000/dump_files/${pot}Dump.txt
shell cat eam1000/dump_files/eamDumploop.800.txt >> eam1000/dump_files/eamDump.txt

if "${pot} == adp" then  "shell cat ${pathName}/dump_files/${pot}difDumploop.${aScaled}.txt >> ${pathName}/dump_files/${pot}difDump.txt"

#delete intermediate adp dump file
shell rm ${pathName}/dump_files/${pot}Dumploop.${aScaled}.txt
shell rm eam1000/dump_files/${pot}Dumploop.${aScaled}.txt
shell rm eam1000/dump_files/eamDumploop.${aScaled}.txt
shell rm eam1000/dump_files/eamDumploop.800.txt

if "${pot} == adp" then  "shell rm ${pathName}/dump_files/${pot}difDumploop.${aScaled}.txt"

clear

next        a
jump        SELF loop

variable    loopEnd equal (${tStep}/${sRate})*${nRuns}
variable    loopEnd equal (1000/${sRate})*${nRuns}
variable    loopEnd equal (1000/100)*${nRuns}
variable    loopEnd equal (1000/100)*4
variable    loopExit equal ${tStep}*${nRuns}
variable    loopExit equal 1000*${nRuns}
variable    loopExit equal 1000*4
variable    a loop ${loopEnd}
variable    a loop 40

variable    aScaled equal $a*${sRate}
variable    aScaled equal 9*${sRate}
variable    aScaled equal 9*100

print       "timestep = ${aScaled}"
timestep = 900
if          "${aScaled} > ${loopExit}" then "jump SELF break"

# ---------- Create Atoms ------------------------------
read_restart ${pathName}/restart_files/ref.restart.${aScaled}
read_restart eam1000/restart_files/ref.restart.${aScaled}
read_restart eam1000/restart_files/ref.restart.900
  restoring atom style atomic from restart
  orthogonal box = (0 0 0) to (8.85 15.3286 14.058)
  1 by 1 by 1 MPI processor grid
  pair style eam/fs stores no restart info
  108 atoms
  read_restart CPU = 0.000170255 secs

print "Reading from restart file ref.restart.${aScaled}"
Reading from restart file ref.restart.900

neighbor 2.0 bin
neigh_modify every 1 delay 0 check yes

# ---------- Define Interatomic Potential ---------------------
if "${pot} == adp" then "pair_style adp"  "pair_coeff * * Ti.adp Ti" elif "${pot} == eam" "pair_style eam/fs"  "pair_coeff * * Ti2.eam.fs Ti" else "print 'Potential type not recognized.'" quit
pair_style eam/fs
pair_coeff * * Ti2.eam.fs Ti

compute apE all pe/atom

#Create additional dump file containing only pos/vel data only if using adp potential
if "${pot} == adp" then  "dump difDumploop all custom 1 ${pathName}/dump_files/${pot}difDumploop.${aScaled}.txt id x y z vx vy vz #fx fy fz c_apE" "dump_modify difDumploop sort id" #pbc yes

dump Dumploop all custom 1 ${pathName}/dump_files/${pot}Dumploop.${aScaled}.txt id x y z vx vy vz fx fy fz c_apE
dump Dumploop all custom 1 eam1000/dump_files/${pot}Dumploop.${aScaled}.txt id x y z vx vy vz fx fy fz c_apE
dump Dumploop all custom 1 eam1000/dump_files/eamDumploop.${aScaled}.txt id x y z vx vy vz fx fy fz c_apE
dump Dumploop all custom 1 eam1000/dump_files/eamDumploop.900.txt id x y z vx vy vz fx fy fz c_apE
dump_modify Dumploop sort id #pbc yes

run 0
WARNING: No fixes defined, atoms won't move (src/verlet.cpp:52)
Unused restart file global fix info:
  fix style: nvt, fix ID: 1
Neighbor list info ...
  update every 1 steps, delay 0 steps, check yes
  max neighbors/atom: 2000, page size: 100000
  master list distance cutoff = 8.9
  ghost atom cutoff = 8.9
  binsize = 4.45, bins = 2 4 4
  1 neighbor lists, perpetual/occasional/extra = 1 0 0
  (1) pair eam/fs, perpetual
      attributes: half, newton on
      pair build: half/bin/atomonly/newton
      stencil: half/bin/3d/newton
      bin: standard
Per MPI rank memory allocation (min/avg/max) = 4.909 | 4.909 | 4.909 Mbytes
Step Temp E_pair E_mol TotEng Press 
     900    450.09483   -559.54025            0   -553.31507    14602.722 
Loop time of 8.47e-07 on 1 procs for 0 steps with 108 atoms

118.1% CPU use with 1 MPI tasks x no OpenMP threads

MPI task timing breakdown:
Section |  min time  |  avg time  |  max time  |%varavg| %total
---------------------------------------------------------------
Pair    | 0          | 0          | 0          |   0.0 |  0.00
Neigh   | 0          | 0          | 0          |   0.0 |  0.00
Comm    | 0          | 0          | 0          |   0.0 |  0.00
Output  | 0          | 0          | 0          |   0.0 |  0.00
Modify  | 0          | 0          | 0          |   0.0 |  0.00
Other   |            | 8.47e-07   |            |       |100.00

Nlocal:    108 ave 108 max 108 min
Histogram: 1 0 0 0 0 0 0 0 0 0
Nghost:    1575 ave 1575 max 1575 min
Histogram: 1 0 0 0 0 0 0 0 0 0
Neighs:    8456 ave 8456 max 8456 min
Histogram: 1 0 0 0 0 0 0 0 0 0

Total # of neighbors = 8456
Ave neighs/atom = 78.2963
Neighbor list builds = 0
Dangerous builds = 0

#append adpDump.txt with current snapshot of adpDumploop.txt
shell cat ${pathName}/dump_files/${pot}Dumploop.${aScaled}.txt >> ${pathName}/dump_files/${pot}Dump.txt
shell cat eam1000/dump_files/${pot}Dumploop.${aScaled}.txt >> ${pathName}/dump_files/${pot}Dump.txt
shell cat eam1000/dump_files/eamDumploop.${aScaled}.txt >> ${pathName}/dump_files/${pot}Dump.txt
shell cat eam1000/dump_files/eamDumploop.900.txt >> ${pathName}/dump_files/${pot}Dump.txt
shell cat eam1000/dump_files/eamDumploop.900.txt >> eam1000/dump_files/${pot}Dump.txt
shell cat eam1000/dump_files/eamDumploop.900.txt >> eam1000/dump_files/eamDump.txt

if "${pot} == adp" then  "shell cat ${pathName}/dump_files/${pot}difDumploop.${aScaled}.txt >> ${pathName}/dump_files/${pot}difDump.txt"

#delete intermediate adp dump file
shell rm ${pathName}/dump_files/${pot}Dumploop.${aScaled}.txt
shell rm eam1000/dump_files/${pot}Dumploop.${aScaled}.txt
shell rm eam1000/dump_files/eamDumploop.${aScaled}.txt
shell rm eam1000/dump_files/eamDumploop.900.txt

if "${pot} == adp" then  "shell rm ${pathName}/dump_files/${pot}difDumploop.${aScaled}.txt"

clear

next        a
jump        SELF loop

variable    loopEnd equal (${tStep}/${sRate})*${nRuns}
variable    loopEnd equal (1000/${sRate})*${nRuns}
variable    loopEnd equal (1000/100)*${nRuns}
variable    loopEnd equal (1000/100)*4
variable    loopExit equal ${tStep}*${nRuns}
variable    loopExit equal 1000*${nRuns}
variable    loopExit equal 1000*4
variable    a loop ${loopEnd}
variable    a loop 40

variable    aScaled equal $a*${sRate}
variable    aScaled equal 10*${sRate}
variable    aScaled equal 10*100

print       "timestep = ${aScaled}"
timestep = 1000
if          "${aScaled} > ${loopExit}" then "jump SELF break"

# ---------- Create Atoms ------------------------------
read_restart ${pathName}/restart_files/ref.restart.${aScaled}
read_restart eam1000/restart_files/ref.restart.${aScaled}
read_restart eam1000/restart_files/ref.restart.1000
  restoring atom style atomic from restart
  orthogonal box = (0 0 0) to (8.85 15.3286 14.058)
  1 by 1 by 1 MPI processor grid
  pair style eam/fs stores no restart info
  108 atoms
  read_restart CPU = 0.000130833 secs

print "Reading from restart file ref.restart.${aScaled}"
Reading from restart file ref.restart.1000

neighbor 2.0 bin
neigh_modify every 1 delay 0 check yes

# ---------- Define Interatomic Potential ---------------------
if "${pot} == adp" then "pair_style adp"  "pair_coeff * * Ti.adp Ti" elif "${pot} == eam" "pair_style eam/fs"  "pair_coeff * * Ti2.eam.fs Ti" else "print 'Potential type not recognized.'" quit
pair_style eam/fs
pair_coeff * * Ti2.eam.fs Ti

compute apE all pe/atom

#Create additional dump file containing only pos/vel data only if using adp potential
if "${pot} == adp" then  "dump difDumploop all custom 1 ${pathName}/dump_files/${pot}difDumploop.${aScaled}.txt id x y z vx vy vz #fx fy fz c_apE" "dump_modify difDumploop sort id" #pbc yes

dump Dumploop all custom 1 ${pathName}/dump_files/${pot}Dumploop.${aScaled}.txt id x y z vx vy vz fx fy fz c_apE
dump Dumploop all custom 1 eam1000/dump_files/${pot}Dumploop.${aScaled}.txt id x y z vx vy vz fx fy fz c_apE
dump Dumploop all custom 1 eam1000/dump_files/eamDumploop.${aScaled}.txt id x y z vx vy vz fx fy fz c_apE
dump Dumploop all custom 1 eam1000/dump_files/eamDumploop.1000.txt id x y z vx vy vz fx fy fz c_apE
dump_modify Dumploop sort id #pbc yes

run 0
WARNING: No fixes defined, atoms won't move (src/verlet.cpp:52)
Unused restart file global fix info:
  fix style: nvt, fix ID: 1
Neighbor list info ...
  update every 1 steps, delay 0 steps, check yes
  max neighbors/atom: 2000, page size: 100000
  master list distance cutoff = 8.9
  ghost atom cutoff = 8.9
  binsize = 4.45, bins = 2 4 4
  1 neighbor lists, perpetual/occasional/extra = 1 0 0
  (1) pair eam/fs, perpetual
      attributes: half, newton on
      pair build: half/bin/atomonly/newton
      stencil: half/bin/3d/newton
      bin: standard
Per MPI rank memory allocation (min/avg/max) = 4.909 | 4.909 | 4.909 Mbytes
Step Temp E_pair E_mol TotEng Press 
    1000    465.84343   -560.43766            0   -553.99465    12868.204 
Loop time of 6.97e-07 on 1 procs for 0 steps with 108 atoms

286.9% CPU use with 1 MPI tasks x no OpenMP threads

MPI task timing breakdown:
Section |  min time  |  avg time  |  max time  |%varavg| %total
---------------------------------------------------------------
Pair    | 0          | 0          | 0          |   0.0 |  0.00
Neigh   | 0          | 0          | 0          |   0.0 |  0.00
Comm    | 0          | 0          | 0          |   0.0 |  0.00
Output  | 0          | 0          | 0          |   0.0 |  0.00
Modify  | 0          | 0          | 0          |   0.0 |  0.00
Other   |            | 6.97e-07   |            |       |100.00

Nlocal:    108 ave 108 max 108 min
Histogram: 1 0 0 0 0 0 0 0 0 0
Nghost:    1570 ave 1570 max 1570 min
Histogram: 1 0 0 0 0 0 0 0 0 0
Neighs:    8443 ave 8443 max 8443 min
Histogram: 1 0 0 0 0 0 0 0 0 0

Total # of neighbors = 8443
Ave neighs/atom = 78.1759
Neighbor list builds = 0
Dangerous builds = 0

#append adpDump.txt with current snapshot of adpDumploop.txt
shell cat ${pathName}/dump_files/${pot}Dumploop.${aScaled}.txt >> ${pathName}/dump_files/${pot}Dump.txt
shell cat eam1000/dump_files/${pot}Dumploop.${aScaled}.txt >> ${pathName}/dump_files/${pot}Dump.txt
shell cat eam1000/dump_files/eamDumploop.${aScaled}.txt >> ${pathName}/dump_files/${pot}Dump.txt
shell cat eam1000/dump_files/eamDumploop.1000.txt >> ${pathName}/dump_files/${pot}Dump.txt
shell cat eam1000/dump_files/eamDumploop.1000.txt >> eam1000/dump_files/${pot}Dump.txt
shell cat eam1000/dump_files/eamDumploop.1000.txt >> eam1000/dump_files/eamDump.txt

if "${pot} == adp" then  "shell cat ${pathName}/dump_files/${pot}difDumploop.${aScaled}.txt >> ${pathName}/dump_files/${pot}difDump.txt"

#delete intermediate adp dump file
shell rm ${pathName}/dump_files/${pot}Dumploop.${aScaled}.txt
shell rm eam1000/dump_files/${pot}Dumploop.${aScaled}.txt
shell rm eam1000/dump_files/eamDumploop.${aScaled}.txt
shell rm eam1000/dump_files/eamDumploop.1000.txt

if "${pot} == adp" then  "shell rm ${pathName}/dump_files/${pot}difDumploop.${aScaled}.txt"

clear

next        a
jump        SELF loop

variable    loopEnd equal (${tStep}/${sRate})*${nRuns}
variable    loopEnd equal (1000/${sRate})*${nRuns}
variable    loopEnd equal (1000/100)*${nRuns}
variable    loopEnd equal (1000/100)*4
variable    loopExit equal ${tStep}*${nRuns}
variable    loopExit equal 1000*${nRuns}
variable    loopExit equal 1000*4
variable    a loop ${loopEnd}
variable    a loop 40

variable    aScaled equal $a*${sRate}
variable    aScaled equal 11*${sRate}
variable    aScaled equal 11*100

print       "timestep = ${aScaled}"
timestep = 1100
if          "${aScaled} > ${loopExit}" then "jump SELF break"

# ---------- Create Atoms ------------------------------
read_restart ${pathName}/restart_files/ref.restart.${aScaled}
read_restart eam1000/restart_files/ref.restart.${aScaled}
read_restart eam1000/restart_files/ref.restart.1100
  restoring atom style atomic from restart
  orthogonal box = (-0.0207135 -0.0358769 -0.0329029) to (8.87071 15.3645 14.0909)
  1 by 1 by 1 MPI processor grid
  pair style eam/fs stores no restart info
  108 atoms
  read_restart CPU = 0.000182586 secs

print "Reading from restart file ref.restart.${aScaled}"
Reading from restart file ref.restart.1100

neighbor 2.0 bin
neigh_modify every 1 delay 0 check yes

# ---------- Define Interatomic Potential ---------------------
if "${pot} == adp" then "pair_style adp"  "pair_coeff * * Ti.adp Ti" elif "${pot} == eam" "pair_style eam/fs"  "pair_coeff * * Ti2.eam.fs Ti" else "print 'Potential type not recognized.'" quit
pair_style eam/fs
pair_coeff * * Ti2.eam.fs Ti

compute apE all pe/atom

#Create additional dump file containing only pos/vel data only if using adp potential
if "${pot} == adp" then  "dump difDumploop all custom 1 ${pathName}/dump_files/${pot}difDumploop.${aScaled}.txt id x y z vx vy vz #fx fy fz c_apE" "dump_modify difDumploop sort id" #pbc yes

dump Dumploop all custom 1 ${pathName}/dump_files/${pot}Dumploop.${aScaled}.txt id x y z vx vy vz fx fy fz c_apE
dump Dumploop all custom 1 eam1000/dump_files/${pot}Dumploop.${aScaled}.txt id x y z vx vy vz fx fy fz c_apE
dump Dumploop all custom 1 eam1000/dump_files/eamDumploop.${aScaled}.txt id x y z vx vy vz fx fy fz c_apE
dump Dumploop all custom 1 eam1000/dump_files/eamDumploop.1100.txt id x y z vx vy vz fx fy fz c_apE
dump_modify Dumploop sort id #pbc yes

run 0
WARNING: No fixes defined, atoms won't move (src/verlet.cpp:52)
Unused restart file global fix info:
  fix style: npt, fix ID: 1
Neighbor list info ...
  update every 1 steps, delay 0 steps, check yes
  max neighbors/atom: 2000, page size: 100000
  master list distance cutoff = 8.9
  ghost atom cutoff = 8.9
  binsize = 4.45, bins = 2 4 4
  1 neighbor lists, perpetual/occasional/extra = 1 0 0
  (1) pair eam/fs, perpetual
      attributes: half, newton on
      pair build: half/bin/atomonly/newton
      stencil: half/bin/3d/newton
      bin: standard
Per MPI rank memory allocation (min/avg/max) = 4.907 | 4.907 | 4.907 Mbytes
Step Temp E_pair E_mol TotEng Press 
    1100    547.40851   -560.67647            0   -553.10535   -3177.7187 
Loop time of 7.05e-07 on 1 procs for 0 steps with 108 atoms

283.7% CPU use with 1 MPI tasks x no OpenMP threads

MPI task timing breakdown:
Section |  min time  |  avg time  |  max time  |%varavg| %total
---------------------------------------------------------------
Pair    | 0          | 0          | 0          |   0.0 |  0.00
Neigh   | 0          | 0          | 0          |   0.0 |  0.00
Comm    | 0          | 0          | 0          |   0.0 |  0.00
Output  | 0          | 0          | 0          |   0.0 |  0.00
Modify  | 0          | 0          | 0          |   0.0 |  0.00
Other   |            | 7.05e-07   |            |       |100.00

Nlocal:    108 ave 108 max 108 min
Histogram: 1 0 0 0 0 0 0 0 0 0
Nghost:    1530 ave 1530 max 1530 min
Histogram: 1 0 0 0 0 0 0 0 0 0
Neighs:    8326 ave 8326 max 8326 min
Histogram: 1 0 0 0 0 0 0 0 0 0

Total # of neighbors = 8326
Ave neighs/atom = 77.0926
Neighbor list builds = 0
Dangerous builds = 0

#append adpDump.txt with current snapshot of adpDumploop.txt
shell cat ${pathName}/dump_files/${pot}Dumploop.${aScaled}.txt >> ${pathName}/dump_files/${pot}Dump.txt
shell cat eam1000/dump_files/${pot}Dumploop.${aScaled}.txt >> ${pathName}/dump_files/${pot}Dump.txt
shell cat eam1000/dump_files/eamDumploop.${aScaled}.txt >> ${pathName}/dump_files/${pot}Dump.txt
shell cat eam1000/dump_files/eamDumploop.1100.txt >> ${pathName}/dump_files/${pot}Dump.txt
shell cat eam1000/dump_files/eamDumploop.1100.txt >> eam1000/dump_files/${pot}Dump.txt
shell cat eam1000/dump_files/eamDumploop.1100.txt >> eam1000/dump_files/eamDump.txt

if "${pot} == adp" then  "shell cat ${pathName}/dump_files/${pot}difDumploop.${aScaled}.txt >> ${pathName}/dump_files/${pot}difDump.txt"

#delete intermediate adp dump file
shell rm ${pathName}/dump_files/${pot}Dumploop.${aScaled}.txt
shell rm eam1000/dump_files/${pot}Dumploop.${aScaled}.txt
shell rm eam1000/dump_files/eamDumploop.${aScaled}.txt
shell rm eam1000/dump_files/eamDumploop.1100.txt

if "${pot} == adp" then  "shell rm ${pathName}/dump_files/${pot}difDumploop.${aScaled}.txt"

clear

next        a
jump        SELF loop

variable    loopEnd equal (${tStep}/${sRate})*${nRuns}
variable    loopEnd equal (1000/${sRate})*${nRuns}
variable    loopEnd equal (1000/100)*${nRuns}
variable    loopEnd equal (1000/100)*4
variable    loopExit equal ${tStep}*${nRuns}
variable    loopExit equal 1000*${nRuns}
variable    loopExit equal 1000*4
variable    a loop ${loopEnd}
variable    a loop 40

variable    aScaled equal $a*${sRate}
variable    aScaled equal 12*${sRate}
variable    aScaled equal 12*100

print       "timestep = ${aScaled}"
timestep = 1200
if          "${aScaled} > ${loopExit}" then "jump SELF break"

# ---------- Create Atoms ------------------------------
read_restart ${pathName}/restart_files/ref.restart.${aScaled}
read_restart eam1000/restart_files/ref.restart.${aScaled}
read_restart eam1000/restart_files/ref.restart.1200
  restoring atom style atomic from restart
  orthogonal box = (-0.0146915 -0.0254464 -0.023337) to (8.86469 15.3541 14.0813)
  1 by 1 by 1 MPI processor grid
  pair style eam/fs stores no restart info
  108 atoms
  read_restart CPU = 0.000287953 secs

print "Reading from restart file ref.restart.${aScaled}"
Reading from restart file ref.restart.1200

neighbor 2.0 bin
neigh_modify every 1 delay 0 check yes

# ---------- Define Interatomic Potential ---------------------
if "${pot} == adp" then "pair_style adp"  "pair_coeff * * Ti.adp Ti" elif "${pot} == eam" "pair_style eam/fs"  "pair_coeff * * Ti2.eam.fs Ti" else "print 'Potential type not recognized.'" quit
pair_style eam/fs
pair_coeff * * Ti2.eam.fs Ti

compute apE all pe/atom

#Create additional dump file containing only pos/vel data only if using adp potential
if "${pot} == adp" then  "dump difDumploop all custom 1 ${pathName}/dump_files/${pot}difDumploop.${aScaled}.txt id x y z vx vy vz #fx fy fz c_apE" "dump_modify difDumploop sort id" #pbc yes

dump Dumploop all custom 1 ${pathName}/dump_files/${pot}Dumploop.${aScaled}.txt id x y z vx vy vz fx fy fz c_apE
[...]

if "${pot} == adp" then  "shell cat ${pathName}/dump_files/${pot}difDumploop.${aScaled}.txt >> ${pathName}/dump_files/${pot}difDump.txt"

#delete intermediate adp dump file
shell rm ${pathName}/dump_files/${pot}Dumploop.${aScaled}.txt
shell rm eam1000/dump_files/${pot}Dumploop.${aScaled}.txt
shell rm eam1000/dump_files/eamDumploop.${aScaled}.txt
shell rm eam1000/dump_files/eamDumploop.3700.txt

if "${pot} == adp" then  "shell rm ${pathName}/dump_files/${pot}difDumploop.${aScaled}.txt"

clear

next        a
jump        SELF loop

variable    loopEnd equal (${tStep}/${sRate})*${nRuns}
variable    loopEnd equal (1000/${sRate})*${nRuns}
variable    loopEnd equal (1000/100)*${nRuns}
variable    loopEnd equal (1000/100)*4
variable    loopExit equal ${tStep}*${nRuns}
variable    loopExit equal 1000*${nRuns}
variable    loopExit equal 1000*4
variable    a loop ${loopEnd}
variable    a loop 40

variable    aScaled equal $a*${sRate}
variable    aScaled equal 38*${sRate}
variable    aScaled equal 38*100

print       "timestep = ${aScaled}"
timestep = 3800
if          "${aScaled} > ${loopExit}" then "jump SELF break"

# ---------- Create Atoms ------------------------------
read_restart ${pathName}/restart_files/ref.restart.${aScaled}
read_restart eam1000/restart_files/ref.restart.${aScaled}
read_restart eam1000/restart_files/ref.restart.3800
  restoring atom style atomic from restart
  orthogonal box = (-0.00700293 -0.0121294 -0.011124) to (8.857 15.3408 14.0691)
  1 by 1 by 1 MPI processor grid
  pair style eam/fs stores no restart info
  108 atoms
  read_restart CPU = 0.000118829 secs

print "Reading from restart file ref.restart.${aScaled}"
Reading from restart file ref.restart.3800

neighbor 2.0 bin
neigh_modify every 1 delay 0 check yes

# ---------- Define Interatomic Potential ---------------------
if "${pot} == adp" then "pair_style adp"  "pair_coeff * * Ti.adp Ti" elif "${pot} == eam" "pair_style eam/fs"  "pair_coeff * * Ti2.eam.fs Ti" else "print 'Potential type not recognized.'" quit
pair_style eam/fs
pair_coeff * * Ti2.eam.fs Ti

compute apE all pe/atom

#Create additional dump file containing only pos/vel data only if using adp potential
if "${pot} == adp" then  "dump difDumploop all custom 1 ${pathName}/dump_files/${pot}difDumploop.${aScaled}.txt id x y z vx vy vz #fx fy fz c_apE" "dump_modify difDumploop sort id" #pbc yes

dump Dumploop all custom 1 ${pathName}/dump_files/${pot}Dumploop.${aScaled}.txt id x y z vx vy vz fx fy fz c_apE
dump Dumploop all custom 1 eam1000/dump_files/${pot}Dumploop.${aScaled}.txt id x y z vx vy vz fx fy fz c_apE
dump Dumploop all custom 1 eam1000/dump_files/eamDumploop.${aScaled}.txt id x y z vx vy vz fx fy fz c_apE
dump Dumploop all custom 1 eam1000/dump_files/eamDumploop.3800.txt id x y z vx vy vz fx fy fz c_apE
dump_modify Dumploop sort id #pbc yes

run 0
WARNING: No fixes defined, atoms won't move (src/verlet.cpp:52)
Unused restart file global fix info:
  fix style: npt, fix ID: 1
Neighbor list info ...
  update every 1 steps, delay 0 steps, check yes
  max neighbors/atom: 2000, page size: 100000
  master list distance cutoff = 8.9
  ghost atom cutoff = 8.9
  binsize = 4.45, bins = 2 4 4
  1 neighbor lists, perpetual/occasional/extra = 1 0 0
  (1) pair eam/fs, perpetual
      attributes: half, newton on
      pair build: half/bin/atomonly/newton
      stencil: half/bin/3d/newton
      bin: standard
Per MPI rank memory allocation (min/avg/max) = 4.909 | 4.909 | 4.909 Mbytes
Step Temp E_pair E_mol TotEng Press 
    3800    283.57025   -561.99392            0    -558.0719    995.75783 
Loop time of 1.022e-06 on 1 procs for 0 steps with 108 atoms

195.7% CPU use with 1 MPI tasks x no OpenMP threads

MPI task timing breakdown:
Section |  min time  |  avg time  |  max time  |%varavg| %total
---------------------------------------------------------------
Pair    | 0          | 0          | 0          |   0.0 |  0.00
Neigh   | 0          | 0          | 0          |   0.0 |  0.00
Comm    | 0          | 0          | 0          |   0.0 |  0.00
Output  | 0          | 0          | 0          |   0.0 |  0.00
Modify  | 0          | 0          | 0          |   0.0 |  0.00
Other   |            | 1.022e-06  |            |       |100.00

Nlocal:    108 ave 108 max 108 min
Histogram: 1 0 0 0 0 0 0 0 0 0
Nghost:    1571 ave 1571 max 1571 min
Histogram: 1 0 0 0 0 0 0 0 0 0
Neighs:    8392 ave 8392 max 8392 min
Histogram: 1 0 0 0 0 0 0 0 0 0

Total # of neighbors = 8392
Ave neighs/atom = 77.7037
Neighbor list builds = 0
Dangerous builds = 0

#append adpDump.txt with current snapshot of adpDumploop.txt
shell cat ${pathName}/dump_files/${pot}Dumploop.${aScaled}.txt >> ${pathName}/dump_files/${pot}Dump.txt
shell cat eam1000/dump_files/${pot}Dumploop.${aScaled}.txt >> ${pathName}/dump_files/${pot}Dump.txt
shell cat eam1000/dump_files/eamDumploop.${aScaled}.txt >> ${pathName}/dump_files/${pot}Dump.txt
shell cat eam1000/dump_files/eamDumploop.3800.txt >> ${pathName}/dump_files/${pot}Dump.txt
shell cat eam1000/dump_files/eamDumploop.3800.txt >> eam1000/dump_files/${pot}Dump.txt
shell cat eam1000/dump_files/eamDumploop.3800.txt >> eam1000/dump_files/eamDump.txt

if "${pot} == adp" then  "shell cat ${pathName}/dump_files/${pot}difDumploop.${aScaled}.txt >> ${pathName}/dump_files/${pot}difDump.txt"

#delete intermediate adp dump file
shell rm ${pathName}/dump_files/${pot}Dumploop.${aScaled}.txt
shell rm eam1000/dump_files/${pot}Dumploop.${aScaled}.txt
shell rm eam1000/dump_files/eamDumploop.${aScaled}.txt
shell rm eam1000/dump_files/eamDumploop.3800.txt

if "${pot} == adp" then  "shell rm ${pathName}/dump_files/${pot}difDumploop.${aScaled}.txt"

clear

next        a
jump        SELF loop

variable    loopEnd equal (${tStep}/${sRate})*${nRuns}
variable    loopEnd equal (1000/${sRate})*${nRuns}
variable    loopEnd equal (1000/100)*${nRuns}
variable    loopEnd equal (1000/100)*4
variable    loopExit equal ${tStep}*${nRuns}
variable    loopExit equal 1000*${nRuns}
variable    loopExit equal 1000*4
variable    a loop ${loopEnd}
variable    a loop 40

variable    aScaled equal $a*${sRate}
variable    aScaled equal 39*${sRate}
variable    aScaled equal 39*100

print       "timestep = ${aScaled}"
timestep = 3900
if          "${aScaled} > ${loopExit}" then "jump SELF break"

# ---------- Create Atoms ------------------------------
read_restart ${pathName}/restart_files/ref.restart.${aScaled}
read_restart eam1000/restart_files/ref.restart.${aScaled}
read_restart eam1000/restart_files/ref.restart.3900
  restoring atom style atomic from restart
  orthogonal box = (-0.00539944 -0.0093521 -0.00857687) to (8.8554 15.338 14.0666)
  1 by 1 by 1 MPI processor grid
  pair style eam/fs stores no restart info
  108 atoms
  read_restart CPU = 0.000114361 secs

print "Reading from restart file ref.restart.${aScaled}"
Reading from restart file ref.restart.3900

neighbor 2.0 bin
neigh_modify every 1 delay 0 check yes

# ---------- Define Interatomic Potential ---------------------
if "${pot} == adp" then "pair_style adp"  "pair_coeff * * Ti.adp Ti" elif "${pot} == eam" "pair_style eam/fs"  "pair_coeff * * Ti2.eam.fs Ti" else "print 'Potential type not recognized.'" quit
pair_style eam/fs
pair_coeff * * Ti2.eam.fs Ti

compute apE all pe/atom

#Create additional dump file containing only pos/vel data only if using adp potential
if "${pot} == adp" then  "dump difDumploop all custom 1 ${pathName}/dump_files/${pot}difDumploop.${aScaled}.txt id x y z vx vy vz #fx fy fz c_apE" "dump_modify difDumploop sort id" #pbc yes

dump Dumploop all custom 1 ${pathName}/dump_files/${pot}Dumploop.${aScaled}.txt id x y z vx vy vz fx fy fz c_apE
dump Dumploop all custom 1 eam1000/dump_files/${pot}Dumploop.${aScaled}.txt id x y z vx vy vz fx fy fz c_apE
dump Dumploop all custom 1 eam1000/dump_files/eamDumploop.${aScaled}.txt id x y z vx vy vz fx fy fz c_apE
dump Dumploop all custom 1 eam1000/dump_files/eamDumploop.3900.txt id x y z vx vy vz fx fy fz c_apE
dump_modify Dumploop sort id #pbc yes

run 0
WARNING: No fixes defined, atoms won't move (src/verlet.cpp:52)
Unused restart file global fix info:
  fix style: npt, fix ID: 1
Neighbor list info ...
  update every 1 steps, delay 0 steps, check yes
  max neighbors/atom: 2000, page size: 100000
  master list distance cutoff = 8.9
  ghost atom cutoff = 8.9
  binsize = 4.45, bins = 2 4 4
  1 neighbor lists, perpetual/occasional/extra = 1 0 0
  (1) pair eam/fs, perpetual
      attributes: half, newton on
      pair build: half/bin/atomonly/newton
      stencil: half/bin/3d/newton
      bin: standard
Per MPI rank memory allocation (min/avg/max) = 4.91 | 4.91 | 4.91 Mbytes
Step Temp E_pair E_mol TotEng Press 
    3900     304.1253   -562.83353            0   -558.62723    5216.2725 
Loop time of 8.55e-07 on 1 procs for 0 steps with 108 atoms

233.9% CPU use with 1 MPI tasks x no OpenMP threads

MPI task timing breakdown:
Section |  min time  |  avg time  |  max time  |%varavg| %total
---------------------------------------------------------------
Pair    | 0          | 0          | 0          |   0.0 |  0.00
Neigh   | 0          | 0          | 0          |   0.0 |  0.00
Comm    | 0          | 0          | 0          |   0.0 |  0.00
Output  | 0          | 0          | 0          |   0.0 |  0.00
Modify  | 0          | 0          | 0          |   0.0 |  0.00
Other   |            | 8.55e-07   |            |       |100.00

Nlocal:    108 ave 108 max 108 min
Histogram: 1 0 0 0 0 0 0 0 0 0
Nghost:    1585 ave 1585 max 1585 min
Histogram: 1 0 0 0 0 0 0 0 0 0
Neighs:    8387 ave 8387 max 8387 min
Histogram: 1 0 0 0 0 0 0 0 0 0

Total # of neighbors = 8387
Ave neighs/atom = 77.6574
Neighbor list builds = 0
Dangerous builds = 0

#append adpDump.txt with current snapshot of adpDumploop.txt
shell cat ${pathName}/dump_files/${pot}Dumploop.${aScaled}.txt >> ${pathName}/dump_files/${pot}Dump.txt
shell cat eam1000/dump_files/${pot}Dumploop.${aScaled}.txt >> ${pathName}/dump_files/${pot}Dump.txt
shell cat eam1000/dump_files/eamDumploop.${aScaled}.txt >> ${pathName}/dump_files/${pot}Dump.txt
shell cat eam1000/dump_files/eamDumploop.3900.txt >> ${pathName}/dump_files/${pot}Dump.txt
shell cat eam1000/dump_files/eamDumploop.3900.txt >> eam1000/dump_files/${pot}Dump.txt
shell cat eam1000/dump_files/eamDumploop.3900.txt >> eam1000/dump_files/eamDump.txt

if "${pot} == adp" then  "shell cat ${pathName}/dump_files/${pot}difDumploop.${aScaled}.txt >> ${pathName}/dump_files/${pot}difDump.txt"

#delete intermediate adp dump file
shell rm ${pathName}/dump_files/${pot}Dumploop.${aScaled}.txt
shell rm eam1000/dump_files/${pot}Dumploop.${aScaled}.txt
shell rm eam1000/dump_files/eamDumploop.${aScaled}.txt
shell rm eam1000/dump_files/eamDumploop.3900.txt

if "${pot} == adp" then  "shell rm ${pathName}/dump_files/${pot}difDumploop.${aScaled}.txt"

clear

next        a
jump        SELF loop

variable    loopEnd equal (${tStep}/${sRate})*${nRuns}
variable    loopEnd equal (1000/${sRate})*${nRuns}
variable    loopEnd equal (1000/100)*${nRuns}
variable    loopEnd equal (1000/100)*4
variable    loopExit equal ${tStep}*${nRuns}
variable    loopExit equal 1000*${nRuns}
variable    loopExit equal 1000*4
variable    a loop ${loopEnd}
variable    a loop 40

variable    aScaled equal $a*${sRate}
variable    aScaled equal 40*${sRate}
variable    aScaled equal 40*100

print       "timestep = ${aScaled}"
timestep = 4000
if          "${aScaled} > ${loopExit}" then "jump SELF break"

# ---------- Create Atoms ------------------------------
read_restart ${pathName}/restart_files/ref.restart.${aScaled}
read_restart eam1000/restart_files/ref.restart.${aScaled}
read_restart eam1000/restart_files/ref.restart.4000
  restoring atom style atomic from restart
  orthogonal box = (-0.00977641 -0.0169332 -0.0155296) to (8.85978 15.3456 14.0735)
  1 by 1 by 1 MPI processor grid
  pair style eam/fs stores no restart info
  108 atoms
  read_restart CPU = 0.000160181 secs

print "Reading from restart file ref.restart.${aScaled}"
Reading from restart file ref.restart.4000

neighbor 2.0 bin
neigh_modify every 1 delay 0 check yes

# ---------- Define Interatomic Potential ---------------------
if "${pot} == adp" then "pair_style adp"  "pair_coeff * * Ti.adp Ti" elif "${pot} == eam" "pair_style eam/fs"  "pair_coeff * * Ti2.eam.fs Ti" else "print 'Potential type not recognized.'" quit
pair_style eam/fs
pair_coeff * * Ti2.eam.fs Ti

compute apE all pe/atom

#Create additional dump file containing only pos/vel data only if using adp potential
if "${pot} == adp" then  "dump difDumploop all custom 1 ${pathName}/dump_files/${pot}difDumploop.${aScaled}.txt id x y z vx vy vz #fx fy fz c_apE" "dump_modify difDumploop sort id" #pbc yes

dump Dumploop all custom 1 ${pathName}/dump_files/${pot}Dumploop.${aScaled}.txt id x y z vx vy vz fx fy fz c_apE
dump Dumploop all custom 1 eam1000/dump_files/${pot}Dumploop.${aScaled}.txt id x y z vx vy vz fx fy fz c_apE
dump Dumploop all custom 1 eam1000/dump_files/eamDumploop.${aScaled}.txt id x y z vx vy vz fx fy fz c_apE
dump Dumploop all custom 1 eam1000/dump_files/eamDumploop.4000.txt id x y z vx vy vz fx fy fz c_apE
dump_modify Dumploop sort id #pbc yes

run 0
WARNING: No fixes defined, atoms won't move (src/verlet.cpp:52)
Unused restart file global fix info:
  fix style: npt, fix ID: 1
Neighbor list info ...
  update every 1 steps, delay 0 steps, check yes
  max neighbors/atom: 2000, page size: 100000
  master list distance cutoff = 8.9
  ghost atom cutoff = 8.9
  binsize = 4.45, bins = 2 4 4
  1 neighbor lists, perpetual/occasional/extra = 1 0 0
  (1) pair eam/fs, perpetual
      attributes: half, newton on
      pair build: half/bin/atomonly/newton
      stencil: half/bin/3d/newton
      bin: standard
Per MPI rank memory allocation (min/avg/max) = 4.909 | 4.909 | 4.909 Mbytes
Step Temp E_pair E_mol TotEng Press 
    4000    291.21956   -563.03662            0   -559.00881   -3008.3761 
Loop time of 7.23e-07 on 1 procs for 0 steps with 108 atoms

414.9% CPU use with 1 MPI tasks x no OpenMP threads

MPI task timing breakdown:
Section |  min time  |  avg time  |  max time  |%varavg| %total
---------------------------------------------------------------
Pair    | 0          | 0          | 0          |   0.0 |  0.00
Neigh   | 0          | 0          | 0          |   0.0 |  0.00
Comm    | 0          | 0          | 0          |   0.0 |  0.00
Output  | 0          | 0          | 0          |   0.0 |  0.00
Modify  | 0          | 0          | 0          |   0.0 |  0.00
Other   |            | 7.23e-07   |            |       |100.00

Nlocal:    108 ave 108 max 108 min
Histogram: 1 0 0 0 0 0 0 0 0 0
Nghost:    1570 ave 1570 max 1570 min
Histogram: 1 0 0 0 0 0 0 0 0 0
Neighs:    8367 ave 8367 max 8367 min
Histogram: 1 0 0 0 0 0 0 0 0 0

Total # of neighbors = 8367
Ave neighs/atom = 77.4722
Neighbor list builds = 0
Dangerous builds = 0

#append adpDump.txt with current snapshot of adpDumploop.txt
shell cat ${pathName}/dump_files/${pot}Dumploop.${aScaled}.txt >> ${pathName}/dump_files/${pot}Dump.txt
shell cat eam1000/dump_files/${pot}Dumploop.${aScaled}.txt >> ${pathName}/dump_files/${pot}Dump.txt
shell cat eam1000/dump_files/eamDumploop.${aScaled}.txt >> ${pathName}/dump_files/${pot}Dump.txt
shell cat eam1000/dump_files/eamDumploop.4000.txt >> ${pathName}/dump_files/${pot}Dump.txt
shell cat eam1000/dump_files/eamDumploop.4000.txt >> eam1000/dump_files/${pot}Dump.txt
shell cat eam1000/dump_files/eamDumploop.4000.txt >> eam1000/dump_files/eamDump.txt

if "${pot} == adp" then  "shell cat ${pathName}/dump_files/${pot}difDumploop.${aScaled}.txt >> ${pathName}/dump_files/${pot}difDump.txt"

#delete intermediate adp dump file
shell rm ${pathName}/dump_files/${pot}Dumploop.${aScaled}.txt
shell rm eam1000/dump_files/${pot}Dumploop.${aScaled}.txt
shell rm eam1000/dump_files/eamDumploop.${aScaled}.txt
shell rm eam1000/dump_files/eamDumploop.4000.txt

if "${pot} == adp" then  "shell rm ${pathName}/dump_files/${pot}difDumploop.${aScaled}.txt"

clear

next        a
jump        SELF loop
label       break
variable    a delete

#----------Call Python script to compare Dump files---------
print "jumping back to main script"
jumping back to main script
jump in.base compareData

variable refDump string ${pathName}/dump_files/refDump.txt
variable refDump string eam1000/dump_files/refDump.txt
variable potDump string ${pathName}/dump_files/${pot}Dump.txt
variable potDump string eam1000/dump_files/${pot}Dump.txt
variable potDump string eam1000/dump_files/eamDump.txt

print "Lammps refDump location: ${refDump}"
Lammps refDump location: eam1000/dump_files/refDump.txt
print "Lammps potDump location: ${potDump}"
Lammps potDump location: eam1000/dump_files/eamDump.txt

#No good way to embedd a shell if within a Lammps if, so using a one-line shell if statement.
if "${pot} == adp" then 'shell if cmp -s -- ${pathName}/dump_files/refDump.txt ${pathName}/dump_files/${pot}Dump.txt; then echo ${refDump} " and " ${potDump} " contain identical data, which is unexpected." ; else echo ${refDump} " and " ${potDump} " differ, which is expected." ; fi' elif "${pot} == eam" 'shell if cmp -s -- ${pathName}/dump_files/refDump.txt ${pathName}/dump_files/${pot}Dump.txt; then echo ${refDump} " and " ${potDump} " contain identical data, which is expected." ; else echo ${refDump} " and " ${potDump} " differ, which is unexpected." ; fi'
shell if cmp -s -- ${pathName}/dump_files/refDump.txt ${pathName}/dump_files/${pot}Dump.txt; then echo ${refDump} " and " ${potDump} " contain identical data, which is expected." ; else echo ${refDump} " and " ${potDump} " differ, which is unexpected." ; fi
shell if cmp -s -- eam1000/dump_files/refDump.txt ${pathName}/dump_files/${pot}Dump.txt; then echo ${refDump} " and " ${potDump} " contain identical data, which is expected." ; else echo ${refDump} " and " ${potDump} " differ, which is unexpected." ; fi
shell if cmp -s -- eam1000/dump_files/refDump.txt eam1000/dump_files/${pot}Dump.txt; then echo ${refDump} " and " ${potDump} " contain identical data, which is expected." ; else echo ${refDump} " and " ${potDump} " differ, which is unexpected." ; fi
shell if cmp -s -- eam1000/dump_files/refDump.txt eam1000/dump_files/eamDump.txt; then echo ${refDump} " and " ${potDump} " contain identical data, which is expected." ; else echo ${refDump} " and " ${potDump} " differ, which is unexpected." ; fi
shell if cmp -s -- eam1000/dump_files/refDump.txt eam1000/dump_files/eamDump.txt; then echo eam1000/dump_files/refDump.txt " and " ${potDump} " contain identical data, which is expected." ; else echo ${refDump} " and " ${potDump} " differ, which is unexpected." ; fi
shell if cmp -s -- eam1000/dump_files/refDump.txt eam1000/dump_files/eamDump.txt; then echo eam1000/dump_files/refDump.txt " and " eam1000/dump_files/eamDump.txt " contain identical data, which is expected." ; else echo ${refDump} " and " ${potDump} " differ, which is unexpected." ; fi
shell if cmp -s -- eam1000/dump_files/refDump.txt eam1000/dump_files/eamDump.txt; then echo eam1000/dump_files/refDump.txt " and " eam1000/dump_files/eamDump.txt " contain identical data, which is expected." ; else echo eam1000/dump_files/refDump.txt " and " ${potDump} " differ, which is unexpected." ; fi
shell if cmp -s -- eam1000/dump_files/refDump.txt eam1000/dump_files/eamDump.txt; then echo eam1000/dump_files/refDump.txt " and " eam1000/dump_files/eamDump.txt " contain identical data, which is expected." ; else echo eam1000/dump_files/refDump.txt " and " eam1000/dump_files/eamDump.txt " differ, which is unexpected." ; fi

print "Leaving Lammps script. Beginning data ANN pre-processing with Python."
Leaving Lammps script. Beginning data ANN pre-processing with Python.
shell which python3
shell python3 --version
shell python3 eval.py ${refDump} ${potDump}
shell python3 eval.py eam1000/dump_files/refDump.txt ${potDump}
shell python3 eval.py eam1000/dump_files/refDump.txt eam1000/dump_files/eamDump.txt
Total wall time: 0:00:02
