ITEM: TIMESTEP
0
ITEM: NUMBER OF ATOMS
108
ITEM: BOX BOUNDS pp pp pp
0.0000000000000000e+00 8.8499999999999996e+00
0.0000000000000000e+00 1.5328649000000000e+01
0.0000000000000000e+00 1.4058000000000000e+01
ITEM: ATOMS id x y z vx vy vz fx fy fz c_apE 
1 0 1.70318 1.1715 2.61576 3.52507 3.39615 -3.21965e-15 -3.29767e-07 2.51188e-15 -4.96721 
2 4.425 9.36751 1.1715 -3.70562 -2.42251 0.623723 -1.22125e-15 -3.29767e-07 8.04912e-16 -4.96721 
3 0 1.70318 5.8575 1.65106 -2.25466 -0.247386 -3.88578e-15 -3.29767e-07 3.46945e-17 -4.96721 
4 4.425 9.36751 5.8575 -1.23527 1.16712 -1.52393 -1.27676e-15 -3.29767e-07 -7.42462e-16 -4.96721 
5 0 1.70318 10.5435 1.10502 -0.953228 -1.95517 5.55112e-16 -3.29767e-07 1.19349e-15 -4.96721 
6 4.425 9.36751 10.5435 -1.16868 -0.018669 2.67732 0 -3.29767e-07 -1.61676e-15 -4.96721 
7 7.375 4.25796 1.1715 -1.79868 -0.0352178 7.04663 9.99201e-16 -3.29767e-07 -2.08167e-15 -4.96721 
8 2.95 11.9223 1.1715 -3.9688 -0.90047 2.1432 -4.4964e-15 -3.29767e-07 -3.60822e-16 -4.96721 
9 7.375 4.25796 5.8575 -1.33605 2.71531 0.0218423 3.66374e-15 -3.29767e-07 -8.60423e-16 -4.96721 
10 2.95 11.9223 5.8575 -1.19979 2.5887 0.341647 5.32907e-15 -3.29767e-07 8.46297e-17 -4.96721 
11 7.375 4.25796 10.5435 -2.59134 2.96278 1.62826 -3.94129e-15 -3.29767e-07 -3.88578e-16 -4.96721 
12 2.95 11.9223 10.5435 -3.12068 -0.0426303 1.33216 -4.44089e-16 -3.29767e-07 -3.48269e-16 -4.96721 
13 5.9 6.81273 1.1715 2.68992 -1.54118 1.28614 5.92235e-15 -3.29767e-07 1.36002e-15 -4.96721 
14 1.475 14.4771 1.1715 -1.98858 0.456091 -0.478828 3.02536e-15 -3.29767e-07 1.94289e-15 -4.96721 
15 5.9 6.81273 5.8575 2.11502 1.74136 -1.70335 2.1632e-15 -3.29767e-07 -6.10623e-16 -4.96721 
16 1.475 14.4771 5.8575 3.07187 3.22386 2.68181 -5.10703e-15 -3.29767e-07 -8.32667e-17 -4.96721 
17 5.9 6.81273 10.5435 -1.70051 -1.69636 -2.65755 4.9908e-15 -3.29767e-07 -4.71845e-16 -4.96721 
18 1.475 14.4771 10.5435 -3.3073 -1.12252 -2.52463 -1.27676e-15 -3.29767e-07 -2.77556e-16 -4.96721 
19 2.95 1.70318 1.1715 1.3687 1.37225 1.28585 -4.4964e-15 -3.29767e-07 8.87339e-16 -4.96721 
20 7.375 9.36751 1.1715 -2.7744 -0.212783 -0.426464 -4.4964e-15 -3.29767e-07 -7.21645e-16 -4.96721 
21 2.95 1.70318 5.8575 -5.32738 2.88573 -1.03065 -2.77556e-16 -3.29767e-07 8.89576e-16 -4.96721 
22 7.375 9.36751 5.8575 1.70243 0.0195405 -3.36118 3.30291e-15 -3.29767e-07 -7.77156e-16 -4.96721 
23 2.95 1.70318 10.5435 1.18275 -1.97644 -1.35027 6.10623e-16 -3.29767e-07 3.86043e-16 -4.96721 
24 7.375 9.36751 10.5435 -1.52333 0.271247 1.48496 -1.249e-15 -3.29767e-07 2.77556e-16 -4.96721 
25 1.475 4.25796 1.1715 1.32709 5.02178 -0.326486 5.44009e-15 -3.29767e-07 3.83443e-16 -4.96721 
26 5.9 11.9223 1.1715 0.250521 4.81631 1.61135 3.21965e-15 -3.29767e-07 7.77156e-16 -4.96721 
27 1.475 4.25796 5.8575 -1.59045 -0.766079 1.04677 1.4988e-15 -3.29767e-07 -1.91177e-16 -4.96721 
28 5.9 11.9223 5.8575 4.49671 -1.31817 0.0120632 -2.22045e-16 -3.29767e-07 -2.34535e-15 -4.96721 
29 1.475 4.25796 10.5435 1.07054 -0.758399 1.80574 3.91354e-15 -3.29767e-07 -2.44669e-19 -4.96721 
30 5.9 11.9223 10.5435 0.798837 -1.94326 0.655869 1.33227e-15 -3.29767e-07 7.91034e-16 -4.96721 
31 3.87606e-17 6.81273 1.1715 0.891439 1.33773 -1.86946 -5.10703e-15 -3.29767e-07 -1.11022e-16 -4.96721 
32 4.425 14.4771 1.1715 -0.745072 -0.478234 -1.52683 1.16573e-15 -3.29767e-07 -3.747e-16 -4.96721 
33 3.30185e-16 6.81273 5.8575 -0.823054 1.86484 0.310609 -5.9952e-15 -3.29767e-07 -4.996e-16 -4.96721 
34 4.425 14.4771 5.8575 1.26783 0.530866 -1.53705 -4.57967e-16 -3.29767e-07 8.32667e-16 -4.96721 
35 2.33563e-16 6.81273 10.5435 -0.841776 0.357288 -0.722471 -4.10783e-15 -3.29767e-07 5.55112e-17 -4.96721 
36 4.425 14.4771 10.5435 1.61449 -2.09703 -0.534229 1.29757e-15 -3.29767e-07 7.28584e-16 -4.96721 
37 5.9 1.70318 1.1715 3.17474 0.822708 2.74533 1.70697e-15 -3.29767e-07 8.60423e-16 -4.96721 
38 1.475 9.36751 1.1715 3.61078 -4.25979 2.05121 5.35683e-15 -3.29767e-07 -5.27356e-16 -4.96721 
39 5.9 1.70318 5.8575 2.46919 -3.23543 4.13885 4.16334e-17 -3.29767e-07 -1.72085e-15 -4.96721 
40 1.475 9.36751 5.8575 -0.723669 -1.43928 -2.44771 -3.35842e-15 -3.29767e-07 4.16334e-17 -4.96721 
41 5.9 1.70318 10.5435 -0.467422 -2.70524 -4.66729 -1.11022e-16 -3.29767e-07 1.38778e-16 -4.96721 
42 1.475 9.36751 10.5435 2.1832 -0.446292 -2.40776 4.66294e-15 -3.29767e-07 3.19189e-16 -4.96721 
43 4.425 4.25796 1.1715 -1.56601 -2.78601 -1.02083 -1.38778e-16 -3.29767e-07 2.74734e-16 -4.96721 
44 0 11.9223 1.1715 3.35138 -3.12949 -0.347801 1.11022e-16 -3.29767e-07 1.08941e-15 -4.96721 
45 4.425 4.25796 5.8575 -0.992022 2.2528 -4.11582 -3.38618e-15 -3.29767e-07 -2.42503e-15 -4.96721 
46 0 11.9223 5.8575 2.27247 0.966957 3.77132 -2.33147e-15 -3.29767e-07 8.04912e-16 -4.96721 
47 4.425 4.25796 10.5435 0.929856 -0.172809 -0.120422 4.85723e-15 -3.29767e-07 1.31743e-15 -4.96721 
48 0 11.9223 10.5435 2.53694 -1.77175 3.15445 -3.10862e-15 -3.29767e-07 -1.17267e-15 -4.96721 
49 2.95 6.81273 1.1715 -2.09226 -2.09102 -0.835619 -1.16573e-15 -3.29767e-07 -9.85323e-16 -4.96721 
50 7.375 14.4771 1.1715 0.395401 -0.929928 1.42168 -3.10862e-15 -3.29767e-07 -4.16334e-15 -4.96721 
51 2.95 6.81273 5.8575 1.1501 -3.96314 -0.272098 4.85723e-15 -3.29767e-07 -1.08247e-15 -4.96721 
52 7.375 14.4771 5.8575 -3.6603 3.56824 1.42761 4.38538e-15 -3.29767e-07 3.83027e-15 -4.96721 
53 2.95 6.81273 10.5435 1.97176 -2.75646 2.24948 -2.55351e-15 -3.29767e-07 7.42462e-16 -4.96721 
54 7.375 14.4771 10.5435 -3.23769 -1.36163 -1.31393 2.44249e-15 -3.29767e-07 -1.22125e-15 -4.96721 
55 1.475 0.851592 3.5145 -2.28416 -4.97732 2.82083 -5.19029e-15 3.29767e-07 -1.05471e-15 -4.96721 
56 5.9 8.51592 3.5145 -2.44881 0.258104 -1.65079 5.22499e-15 3.29767e-07 3.26128e-15 -4.96721 
57 1.475 0.851592 8.2005 2.69084 -3.36668 -5.45942 -5.4956e-15 3.29767e-07 -8.32667e-16 -4.96721 
58 5.9 8.51592 8.2005 1.09298 1.05884 -3.71069 2.72699e-15 3.29767e-07 -1.08247e-15 -4.96721 
59 1.475 0.851592 12.8865 0.392509 5.30134 0.466625 -1.30451e-15 3.29767e-07 -2.77556e-17 -4.96721 
60 5.9 8.51592 12.8865 -0.788318 -0.549585 -1.26722 2.19963e-15 3.29767e-07 9.71445e-17 -4.96721 
61 0 3.40637 3.5145 -0.667393 0.378909 2.59523 -3.16414e-15 3.29767e-07 -6.93889e-16 -4.96721 
62 4.425 11.0707 3.5145 2.78963 -0.487528 -2.56281 -1.73188e-15 3.29767e-07 -2.10942e-15 -4.96721 
63 0 3.40637 8.2005 -1.29518 0.042586 1.22393 1.4988e-15 3.29767e-07 5.82867e-16 -4.96721 
64 4.425 11.0707 8.2005 -1.49427 -1.98521 0.608163 7.02216e-15 3.29767e-07 2.17187e-15 -4.96721 
65 0 3.40637 12.8865 -2.5186 1.86457 -2.51733 -1.72085e-15 3.29767e-07 -1.19349e-15 -4.96721 
66 4.425 11.0707 12.8865 2.34951 2.2268 0.316118 8.25728e-16 3.29767e-07 1.04777e-15 -4.96721 
67 7.375 5.96114 3.5145 0.628749 -2.19948 1.81963 -3.83721e-15 3.29767e-07 -1.33921e-15 -4.96721 
68 2.95 13.6255 3.5145 0.989854 -1.16741 -2.13288 -9.4369e-16 3.29767e-07 2.70617e-16 -4.96721 
69 7.375 5.96114 8.2005 0.0306276 -4.58889 0.277875 -4.59355e-15 3.29767e-07 6.66134e-16 -4.96721 
70 2.95 13.6255 8.2005 -0.802067 1.72185 -4.37285 5.07927e-15 3.29767e-07 6.31439e-16 -4.96721 
71 7.375 5.96114 12.8865 -1.15587 -1.1969 -0.765877 -2.92821e-15 3.29767e-07 -3.26128e-16 -4.96721 
72 2.95 13.6255 12.8865 3.52924 3.61038 -0.481621 -1.9984e-15 3.29767e-07 3.40006e-16 -4.96721 
73 4.425 0.851592 3.5145 -2.30855 -1.00825 -1.53334 -5.68989e-16 3.29767e-07 1.11939e-15 -4.96721 
74 0 8.51592 3.5145 -0.752565 1.67236 2.00905 -1.44329e-15 3.29767e-07 -1.9984e-15 -4.96721 
75 4.425 0.851592 8.2005 -1.00057 -6.62792 1.26957 -3.58047e-15 3.29767e-07 1.01748e-15 -4.96721 
76 7.53617e-18 8.51592 8.2005 1.46523 -0.472809 -1.32249 4.10783e-15 3.29767e-07 1.16573e-15 -4.96721 
77 4.425 0.851592 12.8865 0.851878 3.47857 1.90798 -3.747e-16 3.29767e-07 7.84334e-17 -4.96721 
78 5.0256e-17 8.51592 12.8865 -0.800064 0.633051 -1.52297 -2.88658e-15 3.29767e-07 -4.996e-16 -4.96721 
79 2.95 3.40637 3.5145 0.719821 3.67244 0.844813 -6.93889e-16 3.29767e-07 2.58654e-15 -4.96721 
80 7.375 11.0707 3.5145 -2.67051 4.19869 -1.28462 -4.1165e-15 3.29767e-07 -1.38778e-17 -4.96721 
81 2.95 3.40637 8.2005 3.71039 0.55029 -3.03186 2.77556e-17 3.29767e-07 9.92065e-17 -4.96721 
82 7.375 11.0707 8.2005 -0.728586 -0.715872 -1.02946 -9.28771e-15 3.29767e-07 2.5327e-15 -4.96721 
83 2.95 3.40637 12.8865 0.775278 -2.21885 -0.240002 1.38778e-17 3.29767e-07 -6.06748e-16 -4.96721 
84 7.375 11.0707 12.8865 -2.10525 -1.11149 2.61248 4.24313e-15 3.29767e-07 -2.28983e-15 -4.96721 
85 1.475 5.96114 3.5145 0.565212 0.852536 0.729432 2.77556e-16 3.29767e-07 1.19349e-15 -4.96721 
86 5.9 13.6255 3.5145 0.988722 -0.470368 -4.78018 1.51268e-15 3.29767e-07 1.58728e-15 -4.96721 
87 1.475 5.96114 8.2005 -0.482879 0.882108 0.318037 -2.60902e-15 3.29767e-07 -8.04912e-16 -4.96721 
88 5.9 13.6255 8.2005 2.71023 -1.36842 0.734314 1.30451e-15 3.29767e-07 -1.17539e-16 -4.96721 
89 1.475 5.96114 12.8865 1.44766 -2.03989 -0.776726 -1.44329e-15 3.29767e-07 -5.27356e-16 -4.96721 
90 5.9 13.6255 12.8865 1.16034 1.3771 2.42514 1.92901e-15 3.29767e-07 8.84181e-16 -4.96721 
91 7.375 0.851592 3.5145 7.88917 -1.71292 -1.57166 3.67761e-15 3.29767e-07 -1.7486e-15 -4.96721 
92 2.95 8.51592 3.5145 -1.79138 -0.312029 -0.963589 5.55112e-17 3.29767e-07 9.50628e-16 -4.96721 
93 7.375 0.851592 8.2005 1.27002 2.16488 3.74285 7.02216e-15 3.29767e-07 -8.04912e-16 -4.96721 
94 2.95 8.51592 8.2005 1.21262 1.00031 3.10918 -5.44009e-15 3.29767e-07 9.15934e-16 -4.96721 
95 7.375 0.851592 12.8865 1.20707 -1.4177 -4.19854 -4.57967e-15 3.29767e-07 -7.21645e-16 -4.96721 
96 2.95 8.51592 12.8865 -1.39877 2.4572 4.06273 1.60982e-15 3.29767e-07 7.63278e-17 -4.96721 
97 5.9 3.40637 3.5145 -7.0127 0.62761 1.0014 2.07015e-15 3.29767e-07 -2.498e-16 -4.96721 
98 1.475 11.0707 3.5145 3.60852 -0.059547 -2.06863 2.9976e-15 3.29767e-07 1.77636e-15 -4.96721 
99 5.9 3.40637 8.2005 0.177924 -2.53029 0.586886 -2.89042e-15 3.29767e-07 -1.09635e-15 -4.96721 
100 1.475 11.0707 8.2005 2.88166 0.34103 1.01703 -1.94289e-15 3.29767e-07 -4.16334e-17 -4.96721 
101 5.9 3.40637 12.8865 -1.14537 -0.694192 1.41367 4.40232e-15 3.29767e-07 -4.996e-16 -4.96721 
102 1.475 11.0707 12.8865 -0.0899694 -4.0065 -0.414039 -2.55351e-15 3.29767e-07 -1.3739e-15 -4.96721 
103 4.425 5.96114 3.5145 -0.329286 2.56698 -1.21095 2.2482e-15 3.29767e-07 1.22152e-16 -4.96721 
104 0 13.6255 3.5145 -2.56953 4.60704 -2.28926 2.33147e-15 3.29767e-07 1.66533e-16 -4.96721 
105 4.425 5.96114 8.2005 -2.01414 2.12361 1.54433 4.35763e-15 3.29767e-07 1.32217e-16 -4.96721 
106 0 13.6255 8.2005 -3.02552 2.05965 0.377895 -5.55112e-16 3.29767e-07 -7.21645e-16 -4.96721 
107 4.425 5.96114 12.8865 -3.407 2.19093 -2.32849 1.94289e-15 3.29767e-07 -6.66654e-17 -4.96721 
108 0 13.6255 12.8865 0.171959 0.483799 4.62626 9.99201e-16 3.29767e-07 1.9984e-15 -4.96721 
ITEM: TIMESTEP
1000
ITEM: NUMBER OF ATOMS
108
ITEM: BOX BOUNDS pp pp pp
0.0000000000000000e+00 8.8499999999999996e+00
0.0000000000000000e+00 1.5328649000000000e+01
0.0000000000000000e+00 1.4058000000000000e+01
ITEM: ATOMS id x y z vx vy vz fx fy fz c_apE 
1 0.02659 1.6645 1.17393 0.59822 -3.27173 0.639606 -0.747708 0.836272 -0.344657 -5.12517 
2 4.52193 9.42095 1.0903 1.32795 1.8769 -3.34703 0.294682 -0.407829 0.0219912 -5.12143 
3 0.0987224 1.75648 6.01948 1.54919 -2.56205 1.63 -0.339198 0.380206 -0.0293356 -5.27056 
4 4.42176 9.39654 5.89794 0.0751436 2.09761 -3.83591 0.232511 -0.591788 -0.291568 -4.90361 
5 0.00948272 1.8269 10.5154 -1.46637 -2.59097 -1.8773 0.0482654 -1.12946 -0.600014 -5.06751 
6 4.40431 9.26686 10.4531 3.80249 -3.81114 3.6803 0.0517863 0.22543 -0.0494795 -5.09456 
7 7.35646 4.31448 1.07026 -2.16728 -1.74381 1.25366 0.507063 -0.0418517 0.549258 -5.17701 
8 2.82232 11.7748 1.2038 -0.0013491 2.4293 1.4847 0.55328 1.35633 0.275199 -4.968 
9 7.45139 4.38616 6.00936 1.34751 0.0488525 -4.4355 0.597861 -0.971543 -0.576095 -5.16638 
10 2.86968 12.1077 5.82083 -7.81128 5.69624 -3.86538 -0.155721 -0.755207 -0.0111202 -5.0627 
11 7.34908 4.16689 10.6117 -0.94694 -3.48451 -2.50406 -0.500817 0.295899 0.49756 -4.96727 
12 3.09621 11.807 10.4353 -4.34926 -2.64339 0.145175 -1.24351 0.416833 -0.346459 -5.09415 
13 5.93708 6.94869 1.21596 0.516878 0.128044 -0.995684 -0.191097 -0.477426 -0.190431 -5.14437 
14 1.2835 14.6035 1.31255 -0.382999 0.393076 -0.221362 1.45128 -1.35286 -0.736845 -5.1071 
15 5.94728 6.69844 5.73559 2.86666 -1.2152 -1.79623 -0.296949 1.38953 0.417657 -5.02941 
16 1.42736 14.5879 6.05843 0.00345528 4.69187 0.0362546 -0.261212 -0.536482 0.369063 -5.17846 
17 5.90041 6.96192 10.6352 0.0865305 -0.503337 1.2672 0.19894 -1.6045 0.104565 -5.00498 
18 1.40939 14.3677 10.4692 1.69541 -4.85564 -7.75511 -0.0704929 0.308222 -0.000850627 -5.21085 
19 2.81008 1.9205 1.32302 2.07036 0.809976 -2.50968 0.743245 -0.945981 -0.242232 -5.04534 
20 7.52434 9.31567 1.31546 1.66299 1.2539 1.74189 -0.755893 1.57834 -0.016722 -5.04833 
21 2.97562 1.69587 5.92661 -0.662028 0.56095 -1.02005 0.397083 0.692195 -0.304563 -5.18939 
22 7.18862 9.38515 5.92843 -0.936925 -1.04716 -0.704506 1.36959 -0.501154 -0.0666512 -5.01939 
23 2.96879 1.6269 10.5884 -3.52992 0.344882 0.821048 -0.476732 -0.216187 0.00392766 -5.14086 
24 7.39249 9.41549 10.4373 -2.6024 2.73027 3.77079 -0.557395 -0.253454 -0.308603 -5.05729 
25 1.51712 4.34207 1.14878 1.39163 3.53648 4.85111 -0.757894 1.33888 -0.0456316 -5.03461 
26 5.84782 11.8946 1.23891 3.22876 -2.90275 0.168988 0.9558 -1.0192 0.475545 -4.98935 
27 1.68435 4.28454 5.82068 1.02384 -1.95435 -3.12626 -0.811127 0.169709 0.340246 -5.24028 
28 5.69057 11.968 5.8958 1.50044 -0.289077 1.65466 0.971891 0.0784203 -0.108033 -5.11882 
29 1.41511 4.18366 10.6367 0.0497287 -0.907752 -1.89557 0.262664 0.511846 -0.212945 -5.1243 
30 5.75326 11.8859 10.5213 0.0331059 3.15494 -1.03931 1.40239 0.205673 -0.107587 -5.06357 
31 8.68864 7.00465 1.29052 -2.92543 -0.49805 -3.99351 2.2146 -1.50333 -0.471035 -4.97004 
32 4.49894 14.213 1.30438 0.495351 -6.52878 0.0105937 -1.61263 1.71327 -0.588942 -5.10587 
33 0.0103057 6.80214 5.85212 -2.51017 2.89973 -4.36313 0.0359832 0.0832988 -0.248084 -5.04083 
34 4.42085 14.5348 5.87803 3.41861 2.40682 0.81444 -0.220457 0.444334 0.314804 -5.10301 
35 8.68577 6.87583 10.561 -0.471581 0.575977 4.49232 1.17054 -0.398483 -0.102207 -5.0711 
36 4.42685 14.4888 10.3959 6.98763 -1.92156 -1.8765 -0.465395 -0.381493 -0.237447 -5.04181 
37 5.89759 1.56602 0.933392 -5.47525 -0.761207 0.687351 -0.97811 0.411479 1.31708 -5.19004 
38 1.67429 9.32225 1.08427 0.0710907 -0.0969916 -0.286661 -1.44465 -0.262585 0.503917 -4.95824 
39 5.94388 1.79969 5.65851 1.58787 1.33365 -2.89976 -0.190863 -0.507031 0.589649 -5.21289 
40 1.79382 9.1515 5.87046 0.773801 -4.07215 0.832239 -2.11345 0.834881 -0.14511 -4.78467 
41 5.78892 1.38335 10.7212 -0.573923 -3.67553 -0.899152 0.679825 2.32833 -0.114395 -5.02326 
42 1.48455 9.35665 10.5202 2.43424 2.0591 -2.65603 0.709929 -0.485247 -0.0227081 -5.04603 
43 4.57706 4.27833 1.19259 -1.9074 1.80893 1.84996 -0.501692 0.21913 0.270894 -5.14752 
44 8.75248 11.9299 1.28137 2.34638 3.91993 -3.66221 0.496621 -0.171492 0.0133829 -5.13624 
45 4.60014 4.35507 5.71287 1.07781 -2.84533 -4.56097 -1.00346 -1.73624 -0.328989 -4.98692 
46 0.00932564 11.8434 5.97689 1.70024 2.92056 0.736826 -0.132764 -0.126719 -0.0765715 -5.15268 
47 4.47143 4.14347 10.4842 2.78944 2.71399 3.39862 -0.284114 -0.297294 0.587031 -5.12592 
48 0.0931126 11.6957 10.4211 -3.45269 0.145961 -3.81196 -1.07109 1.59947 0.0305566 -5.06294 
49 3.03947 6.83924 1.0577 -2.10949 0.212654 3.96821 -0.627961 0.126247 0.203424 -5.17676 
50 7.30387 14.4547 1.06058 -3.67274 3.79111 4.95061 0.0383688 0.0131633 -0.323978 -5.03818 
51 3.02522 6.76781 5.79765 1.75 5.32105 -2.996 0.512448 0.223079 0.34684 -5.08371 
52 7.45382 14.478 5.91138 -1.64378 -0.915773 -0.812159 -0.841581 -0.195728 0.269961 -5.24415 
53 2.9096 6.72201 10.5588 -1.6562 -3.71073 -4.30868 -0.0148679 0.188552 0.631461 -5.0999 
54 7.3923 14.5005 10.6232 -0.826564 3.15684 -0.240072 0.5517 -1.05581 0.414009 -5.08058 
55 1.45706 0.815069 3.45688 -2.21473 4.07698 0.959747 0.457206 0.49029 -0.544911 -5.06996 
56 5.89368 8.61634 3.63728 1.63759 -1.60758 -0.311535 0.0154254 -0.44901 0.105689 -5.10675 
57 1.60551 0.775528 8.30777 -9.46389 2.01103 1.21415 -0.9308 0.649028 -0.192312 -5.10892 
58 6.08969 8.27046 8.16044 1.19478 -7.96152 0.328718 -1.44093 0.66127 -0.116646 -4.84395 
59 1.40671 0.907614 12.9716 -1.52167 3.01106 -0.011479 0.817733 -0.621119 0.0604229 -5.10151 
60 5.9046 8.69726 12.8399 2.63325 0.987777 -0.81416 0.0811024 -0.676353 -0.273895 -5.09845 
61 0.0487055 3.41371 3.39601 -3.66581 0.335082 3.94679 0.710607 0.63434 -0.121714 -5.24689 
62 4.35827 11.1222 3.49688 0.498108 1.01818 1.88854 -0.191795 0.128163 0.264639 -5.04185 
63 0.107915 3.50973 8.27275 -1.30362 0.991561 1.70741 -0.310926 -0.922996 0.426876 -5.09025 
64 4.44112 10.9269 8.00621 -1.84292 -0.105531 -1.34863 0.0557181 0.695674 0.711766 -5.03526 
65 8.84639 3.41448 12.8617 3.78725 1.64167 -2.83589 0.174737 0.0983258 -0.429128 -5.05829 
66 4.20707 11.2177 12.782 -2.42553 -0.948964 5.71407 1.24937 -0.876402 0.236348 -5.03289 
67 7.49207 6.00166 3.50555 2.35865 2.79433 0.394909 -0.439455 0.0801177 0.116267 -5.06176 
68 2.73786 13.6187 3.52596 -2.84612 0.937265 -3.30366 0.341215 -0.18891 0.00861577 -5.07648 
69 7.31243 5.88467 8.26758 2.67416 -1.96373 1.38986 0.323136 -0.0199646 -0.103808 -5.03572 
70 2.96077 13.5286 8.19998 2.80954 -1.29025 1.64381 0.000786306 -0.206665 -0.378528 -5.16468 
71 7.4912 5.84649 12.9382 1.24083 1.74705 -4.03748 -0.433609 1.16887 -0.620251 -5.06052 
72 2.89644 13.5754 12.8505 4.09769 -1.60782 9.22128 -0.73776 0.802537 0.392444 -5.07701 
73 4.39427 0.689355 3.57766 -2.70426 0.409854 -3.27213 0.530621 0.560556 -0.316268 -5.14973 
74 0.0624233 8.54474 3.75108 0.60089 2.32488 5.59826 -0.852135 0.654256 -0.762064 -5.13414 
75 4.43919 0.800702 8.18511 1.52482 -0.743856 1.88077 0.501634 0.566825 -0.241095 -5.04523 
76 8.83047 8.36745 8.21651 0.107651 -1.1333 1.55728 0.618257 0.174543 -0.728045 -5.08681 
77 4.31067 0.820835 13.021 -5.34398 1.8193 0.498101 -0.145562 -0.384695 -0.151138 -5.25585 
78 0.10646 8.5032 12.9165 4.2344 1.33358 3.62286 -0.960168 0.304057 -0.120225 -5.14472 
79 3.12224 3.36998 3.4577 2.16064 0.215924 3.72774 -1.25816 0.398688 0.0511594 -5.04669 
80 7.28068 11.1509 3.43544 -2.21817 1.94813 0.724458 0.196166 -0.4672 0.0467724 -5.10376 
81 2.99967 3.49757 8.2622 -1.09308 -3.64432 3.08 -0.255758 -0.758731 -0.444019 -5.07514 
82 7.22085 10.9389 8.23403 -2.51804 2.82135 0.86629 1.31803 0.281875 -0.15006 -5.14206 
83 3.06232 3.57453 12.8184 -0.67467 3.84453 1.9015 -0.869806 -0.758361 -0.0914105 -5.19093 
84 7.31605 11.081 12.9443 1.94996 0.978528 -5.42259 0.939251 0.230005 -0.034932 -5.06034 
85 1.47571 6.17608 3.44516 -0.222929 -0.0620017 0.27681 0.375028 -1.52383 -0.250267 -5.12302 
86 5.8231 13.5441 3.40586 1.05782 -3.50797 -1.39922 -0.0746395 1.05834 0.727661 -5.0693 
87 1.43656 5.98843 8.36327 -2.95158 5.43205 -2.55687 0.355573 -0.0303322 -0.474245 -5.14825 
88 5.98559 13.7302 8.24047 1.57981 2.86989 -2.94359 -0.243621 -0.841999 0.083923 -5.16705 
89 1.53464 6.09973 12.7967 0.57692 -0.651574 -1.19924 0.0349663 -0.809937 -0.117392 -5.19485 
90 5.84843 13.4981 12.7565 2.77533 -4.11453 1.77751 0.518598 0.696896 -0.00156901 -5.1557 
91 7.35417 0.911159 3.55437 8.58486 -0.264574 3.51611 0.12666 -0.199113 0.186049 -5.09883 
92 2.925 8.66885 3.51558 -0.692097 -0.735969 -1.20286 -0.463032 -0.239695 -0.238363 -5.04826 
93 7.38628 1.00258 8.15904 7.36073 -1.38303 -1.06274 0.749561 -0.15229 -0.111422 -5.14908 
94 3.01622 8.46879 8.12782 2.31485 -8.17785 1.07276 0.340588 -0.342839 0.329439 -5.08824 
95 7.33437 0.876533 12.8793 2.90088 0.651463 4.29506 -0.0146422 -0.330156 0.436239 -5.04651 
96 2.99926 8.56822 12.8502 -2.57695 -5.0153 -1.50372 -0.0755045 -0.31857 0.118553 -5.06971 
97 5.86039 3.40453 3.39301 0.62002 -1.95159 -0.683371 0.774974 -0.0132029 -0.12046 -5.09844 
98 1.31926 11.0977 3.59046 -0.606029 0.533739 4.55201 0.062346 0.541068 0.438697 -5.07251 
99 5.83082 3.44976 8.13309 0.485304 -5.82513 0.731366 0.21949 -0.914722 0.627372 -5.14507 
100 1.47587 10.9167 8.04458 4.39213 -1.55029 -1.02229 -0.41384 0.778505 0.241815 -5.1384 
101 5.82391 3.48146 12.8534 -1.18769 -3.51824 -0.0559772 0.36768 -0.594393 0.548107 -5.10224 
102 1.44377 11.0744 12.8029 -3.68232 -1.73969 -1.86618 -0.401348 -0.0588246 -0.159507 -5.05366 
103 4.33847 6.05795 3.39426 -4.9081 3.76138 1.47902 0.799353 -0.082103 -0.0281237 -5.14734 
104 8.65091 13.7427 3.57852 -0.116215 -0.82467 0.789066 0.883931 -0.602413 0.0638621 -5.09271 
105 4.40594 5.861 8.3166 -1.54522 3.06763 1.28401 0.326285 0.915008 -0.097524 -5.11082 
106 8.78196 13.5349 8.35348 0.706745 -4.09102 -2.77593 0.373932 0.224745 0.145378 -5.1644 
107 4.60453 6.05183 12.7751 -1.25023 3.14296 2.35087 -0.83778 0.0938958 0.450481 -5.13752 
108 0.0986746 13.5771 12.8473 -5.47057 5.50246 -0.952477 -1.06819 0.454306 -0.697984 -5.24147 
ITEM: TIMESTEP
2000
ITEM: NUMBER OF ATOMS
108
ITEM: BOX BOUNDS pp pp pp
-1.1871716673228505e-02 8.8618717166732424e+00
-2.0562415583229132e-02 1.5349211415583232e+01
-1.8857920112117732e-02 1.4076857920112099e+01
ITEM: ATOMS id x y z vx vy vz fx fy fz c_apE 
1 0.368547 1.87386 1.22583 4.43473 2.24219 -2.51405 -2.59055 -0.147391 0.300668 -5.01243 
2 4.31576 9.18804 1.13689 -3.35077 -2.10195 0.323078 0.720604 1.47457 0.529541 -5.0184 
3 0.0621546 1.88828 5.78966 1.61653 2.96636 -1.30298 -0.723725 -1.66466 0.530996 -4.92555 
4 4.41812 9.35106 5.76233 -0.00796784 -3.7564 3.70953 0.42363 -0.284725 -0.0665835 -5.26205 
5 0.148354 1.50096 10.4331 0.094783 1.31043 0.874197 -1.24667 0.968494 0.35427 -5.24109 
6 4.39101 9.33306 10.5714 3.91483 0.197247 3.53049 1.47829 -0.310039 0.300784 -5.06884 
7 7.41798 4.20582 1.16818 0.70906 0.13333 0.229673 -0.117755 -0.297089 -0.14748 -5.1133 
8 3.06815 11.8892 1.11534 -2.90192 5.0387 -2.4808 -1.38477 0.154432 -0.350325 -5.1173 
9 7.24552 4.13241 5.88378 0.765937 -1.89977 1.61994 0.684964 0.888329 0.00304551 -5.025 
10 3.0597 12.0945 5.89904 -3.90407 -3.36178 2.43141 -0.249646 -0.993682 -0.0559666 -5.13003 
11 7.17639 4.13398 10.521 1.00071 1.36181 -2.00862 1.66743 -0.0440251 -0.0420809 -4.96976 
12 2.94084 11.8103 10.613 -3.4958 -0.502048 -3.52882 -1.10884 0.0696193 0.0940237 -4.94097 
13 5.83941 6.68301 1.2755 4.52368 -1.2833 3.44306 0.497871 0.118572 0.234328 -5.07425 
14 1.27609 14.6158 1.15142 -3.48962 1.09147 5.81679 1.64688 -0.869303 -0.217122 -5.0568 
15 6.22743 6.88599 5.63575 -2.66641 -0.392478 3.45739 -2.61243 -0.469988 0.242754 -5.06412 
16 1.50795 14.7093 5.83658 4.46794 1.3487 1.98162 -0.1582 -0.750836 -0.186237 -5.11116 
17 5.90786 6.63402 10.6083 2.32024 0.678305 -2.77103 -0.0152572 1.17016 -0.417439 -5.18683 
18 1.30511 14.3892 10.6426 4.19271 5.48035 -1.38965 1.34544 -0.243299 -0.330594 -4.90863 
19 3.07252 1.79955 1.06893 -4.39553 -1.66378 9.21119 -0.813337 -0.504247 -0.0174974 -4.86732 
20 7.2503 9.52458 0.800005 0.594331 -1.46143 2.11105 -0.0219795 -0.555855 1.48221 -5.12664 
21 3.01266 1.87269 5.88609 0.679676 2.53331 -1.10276 -0.0958019 -0.640795 0.237647 -5.01686 
22 7.36711 9.31771 5.89106 0.161814 -2.7137 0.164463 0.425402 2.05395 -0.192483 -5.12228 
23 3.12979 1.48141 10.5767 -3.31803 2.85798 3.32763 -1.40865 0.342282 -0.0812675 -5.04441 
24 7.36358 9.39328 10.5726 2.69506 -2.98511 -2.68278 -0.344556 -0.415645 0.361545 -5.17265 
25 1.5026 4.40726 1.16459 -4.28351 1.20889 0.95269 -1.20861 -0.583037 0.123246 -4.9446 
26 5.91123 12.0856 1.17747 -0.141654 -1.09445 2.53371 -0.019603 -0.214527 -0.101713 -5.0361 
27 1.35048 4.20536 5.91743 -3.00918 0.278297 -0.359561 0.573931 2.06071 0.236761 -5.06824 
28 5.88365 11.9551 5.65872 -3.95258 -3.4274 -6.43528 1.07096 -0.582981 0.29105 -5.14521 
29 1.6842 4.09696 10.356 -0.188146 -2.20895 -3.30581 -2.24884 0.890275 0.307805 -5.13964 
30 5.77288 11.8916 10.6111 0.908672 -6.57846 -0.194034 0.853943 -0.608948 -0.449234 -5.05681 
31 8.8132 6.80193 1.07667 1.2907 6.6853 -2.61563 0.013382 0.544629 0.124303 -5.16277 
32 4.2913 14.4988 1.23576 2.87052 -1.99651 1.07874 0.893448 1.13524 0.0959041 -5.11433 
33 8.75126 6.89505 5.99237 3.07694 0.325923 5.78568 1.50707 -1.44926 0.742935 -4.95244 
34 4.47459 14.5473 5.77784 -2.55729 -3.20396 1.11565 -0.427365 -0.0937268 0.377834 -5.03242 
35 8.71391 6.87648 10.3565 -0.341694 0.31127 1.96976 1.25643 -0.628757 -0.0891957 -5.15671 
36 4.37446 14.2281 10.6051 -2.25962 1.83982 -0.234199 0.307214 1.52734 0.331137 -5.08888 
37 5.75895 1.78528 1.20257 2.49722 0.0140301 -3.02522 2.20159 -0.749653 0.523813 -4.83032 
38 1.32019 9.2701 1.13842 -1.241 -1.95349 -1.78713 0.185415 0.277498 0.0949504 -4.99388 
39 5.8251 1.58319 5.81713 -0.456656 4.32418 1.73784 0.552687 0.517812 -0.346406 -5.07194 
40 1.46389 9.43696 5.66745 3.04548 -1.72717 2.88033 0.214561 -0.0272663 0.446767 -5.13875 
41 5.86437 1.66058 10.6327 -0.808799 -1.63314 3.63039 0.222751 -1.15113 -0.014278 -5.02591 
42 1.52705 9.36679 10.5313 2.06824 0.94506 0.0194809 -0.535829 0.132663 0.482609 -5.22354 
43 4.10321 4.36421 1.25261 0.0368322 -0.270436 -0.737622 2.4096 -0.481888 0.0818334 -4.90722 
44 0.0122479 11.8058 1.20999 -1.10782 -5.80566 2.67869 -0.390813 1.22216 -0.143095 -5.09297 
45 4.39521 4.38394 5.93533 -2.18108 1.4447 -5.82826 0.563878 -0.970392 -0.635344 -5.10432 
46 0.102102 11.9954 5.82877 -0.170227 4.26359 -2.47908 -0.92711 0.0288472 -0.408891 -5.03432 
47 4.29023 4.27363 10.578 -1.64955 -1.26869 3.10845 0.27968 -0.811808 -0.310986 -4.954 
48 8.78933 12.0027 10.3293 0.684053 -4.6054 2.59459 0.182502 -0.884919 0.348773 -5.07825 
49 2.93766 6.89247 1.32553 1.55967 3.57142 2.02384 -1.24709 -0.135643 0.356024 -4.94671 
50 7.41024 14.7503 1.31961 -2.59462 -0.504538 -2.96786 -0.161133 -1.0299 -0.155674 -5.18206 
51 3.08168 6.6887 5.83211 1.31795 -4.5631 -1.62151 -0.81734 1.02268 -0.292919 -5.12307 
52 7.42047 14.4799 5.81729 -4.06889 5.08798 -1.80962 0.513406 0.762643 -0.236839 -5.13251 
53 3.05554 6.86123 10.5262 -1.08226 2.31699 4.51961 -1.24472 -0.401312 -0.625288 -5.09774 
54 7.31951 14.4253 10.5017 0.253048 -0.358697 -2.80313 0.211178 0.664092 -0.0599949 -5.15255 
55 1.50726 0.82416 3.54506 -0.137742 -3.00903 -0.823981 -0.445266 0.34965 0.438485 -4.97121 
56 5.95493 8.61913 3.31296 4.19325 -1.97492 2.90778 -0.640669 0.549393 0.492974 -5.22979 
57 1.69045 0.761044 8.11023 -3.80466 3.0242 -2.79456 -1.50769 -0.310044 0.244545 -5.07677 
58 5.92328 8.42035 8.30113 1.29482 -5.56127 0.270595 0.0360438 0.147075 0.110349 -5.13126 
59 1.48144 0.944497 12.8415 1.81143 0.933741 0.30232 -0.1588 0.283137 -0.235566 -5.18109 
60 5.84509 8.41358 12.8598 -0.944572 -0.894045 2.30522 0.627566 0.702791 -0.247599 -4.88131 
61 8.78742 3.37899 3.61959 -2.50816 -0.444746 -4.33556 1.28944 1.34953 0.0750239 -4.99013 
62 4.2953 11.2151 3.40873 0.443682 -2.56556 -2.71964 1.35789 -0.966745 -0.661541 -4.95755 
63 0.0572324 3.34205 8.20229 -0.600028 1.83268 -0.937301 0.0479981 -0.0380637 0.282727 -5.158 
64 4.49488 11.1243 8.26176 0.41906 -1.57714 0.989293 -0.841233 -1.28777 -0.0846158 -5.02513 
65 8.7303 3.37903 12.8686 -2.69491 1.25186 1.20923 0.889472 0.724919 -0.0518993 -5.27884 
66 4.5811 11.1679 13.0731 -2.86023 1.64238 0.931797 -0.976986 -0.609166 -0.126914 -5.12181 
67 7.33005 5.93672 3.47562 4.8929 0.574943 0.773895 0.0440431 0.612279 -0.501366 -5.08541 
68 2.96391 13.6204 3.58119 1.44319 0.223381 0.964274 -0.369102 0.616828 -0.180806 -5.08554 
69 7.3742 5.74679 8.26548 -3.37548 -2.23271 -0.0935467 0.702783 0.363666 0.14938 -5.04867 
70 2.67677 13.6261 8.33479 2.4814 2.63412 3.71081 2.13093 -0.602089 -0.11875 -5.04798 
71 7.33653 6.0712 13.1017 -2.75455 0.713611 1.58874 0.0391645 -1.17584 -0.481317 -5.18805 
72 2.98572 13.7908 12.7963 1.23522 -1.75814 -5.68865 0.107615 -0.44907 0.256989 -5.08893 
73 4.23074 0.963858 3.53368 -4.50374 1.50055 0.686618 1.21901 -0.433393 -0.474706 -5.05 
74 8.78156 8.6422 3.39945 -1.65353 4.48894 -1.96194 0.311325 0.484182 -0.273904 -5.12845 
75 4.59274 0.632967 8.17168 -0.985884 -2.46424 2.14648 -0.621617 -0.0404309 0.220824 -5.16627 
76 0.0119711 8.4045 8.16502 -7.25453 6.95547 -7.48897 -0.441813 0.497415 0.444775 -5.09565 
77 4.55534 0.881373 13.0123 0.145393 0.788308 4.17912 -0.828594 -0.222517 -0.292652 -5.09688 
78 8.78845 8.55212 12.8722 1.61223 5.82403 -2.50817 0.739997 0.639127 -0.288803 -5.19522 
79 2.87476 3.48414 3.56744 6.55797 2.36725 -3.22891 0.00700243 0.19943 0.271256 -5.09352 
80 7.23407 11.3206 3.47064 -4.24765 -0.812306 -3.70334 0.90664 -1.11338 -0.393113 -5.16749 
81 2.98036 3.34214 8.24365 9.84634 -1.0733 2.36513 -0.222774 0.633562 -0.0758792 -4.97898 
82 7.43171 10.9898 8.25954 5.42552 -1.54732 5.48174 -0.0943315 -0.472727 -0.465732 -5.0848 
83 2.95219 3.46926 12.9438 0.736372 -2.69186 -2.67601 -1.00639 -0.895322 0.127304 -4.92689 
84 7.40254 11.2663 12.9458 1.45664 0.971789 1.6877 -0.0378852 -0.393476 -0.526174 -4.97921 
85 1.37726 6.11987 3.58283 4.65603 -0.621658 -2.75107 -0.443687 -1.18267 0.284885 -5.19827 
86 5.83712 13.7474 3.44608 -0.277391 5.09274 0.699682 0.328888 0.757943 -0.497059 -5.07959 
87 1.45969 6.15904 8.10221 1.08171 -1.31051 1.55117 0.0229999 -2.5203 -0.135267 -4.98664 
88 5.91308 13.3358 8.15481 0.0780417 -0.238489 2.58237 -0.336164 1.55516 -0.49463 -4.98134 
89 1.45902 5.94687 12.7999 0.533044 3.18781 -1.48697 -1.06268 0.512653 0.0382853 -5.27001 
90 5.86941 13.7229 12.9873 -2.54418 -3.65943 -0.657718 1.22367 0.292265 0.159038 -5.06402 
91 7.53128 0.978781 3.5824 4.53873 -0.610141 -1.70488 -1.32938 -1.60636 0.0410658 -5.02879 
92 2.81558 8.55083 3.54175 -4.59396 0.711738 0.632512 1.25349 0.0057316 0.0564384 -4.97614 
93 7.47231 0.823897 8.17221 0.363865 -1.26532 -0.12827 0.0731995 -0.810735 -0.375825 -5.27669 
94 3.01956 8.35042 8.01387 -2.29511 -1.25871 -4.19636 1.13409 1.25079 0.23082 -5.1024 
95 7.43964 0.822643 12.9972 0.508278 -3.18028 -3.77198 0.241965 -0.475056 0.599322 -5.24246 
96 3.10707 8.39831 13.095 1.59324 3.22742 -2.09976 -1.7833 0.580419 -0.765959 -5.12847 
97 5.91952 3.29123 3.52069 -4.60632 -0.282706 0.757266 -0.650471 0.479429 -0.647241 -5.17503 