ITEM: TIMESTEP
0
ITEM: NUMBER OF ATOMS
108
ITEM: BOX BOUNDS pp pp pp
0.0000000000000000e+00 8.8499999999999996e+00
0.0000000000000000e+00 1.5328649000000000e+01
0.0000000000000000e+00 1.4058000000000000e+01
ITEM: ATOMS id x y z vx vy vz fx fy fz c_apE 
1 0 1.70318 1.1715 2.61576 3.52507 3.39615 0 -3.54439e-14 -7.77156e-16 -5.24645 
2 4.425 9.36751 1.1715 -3.70562 -2.42251 0.623723 -8.32667e-17 4.80822e-15 1.88868e-16 -5.24645 
3 0 1.70318 5.8575 1.65106 -2.25466 -0.247386 -6.66134e-16 -3.66651e-14 -3.33067e-16 -5.24645 
4 4.425 9.36751 5.8575 -1.23527 1.16712 -1.52393 -8.74301e-16 6.07435e-15 2.13588e-16 -5.24645 
5 0 1.70318 10.5435 1.10502 -0.953228 -1.95517 9.99201e-16 -2.70894e-14 -2.77556e-17 -5.24645 
6 4.425 9.36751 10.5435 -1.16868 -0.018669 2.67732 -1.15186e-15 4.72994e-15 -4.98733e-18 -5.24645 
7 7.375 4.25796 1.1715 -1.79868 -0.0352178 7.04663 -1.04083e-15 1.04361e-14 -1.94289e-16 -5.24645 
8 2.95 11.9223 1.1715 -3.9688 -0.90047 2.1432 -1.77636e-15 -3.31245e-14 -7.4051e-17 -5.24645 
9 7.375 4.25796 5.8575 -1.33605 2.71531 0.0218423 3.2474e-15 1.20182e-14 -1.38778e-17 -5.24645 
10 2.95 11.9223 5.8575 -1.19979 2.5887 0.341647 1.30451e-15 -3.22685e-14 -1.02023e-16 -5.24645 
11 7.375 4.25796 10.5435 -2.59134 2.96278 1.62826 -2.42861e-15 9.9365e-15 -9.02056e-16 -5.24645 
12 2.95 11.9223 10.5435 -3.12068 -0.0426303 1.33216 1.66533e-16 -3.19701e-14 -1.61004e-16 -5.24645 
13 5.9 6.81273 1.1715 2.68992 -1.54118 1.28614 1.85962e-15 -3.1454e-14 -6.10623e-16 -5.24645 
14 1.475 14.4771 1.1715 -1.98858 0.456091 -0.478828 1.34615e-15 9.62425e-15 -1.80411e-16 -5.24645 
15 5.9 6.81273 5.8575 2.11502 1.74136 -1.70335 1.13798e-15 -3.18565e-14 4.30211e-16 -5.24645 
16 1.475 14.4771 5.8575 3.07187 3.22386 2.68181 -6.52256e-16 9.98507e-15 -4.71845e-16 -5.24645 
17 5.9 6.81273 10.5435 -1.70051 -1.69636 -2.65755 2.96985e-15 -3.18773e-14 5.68989e-16 -5.24645 
18 1.475 14.4771 10.5435 -3.3073 -1.12252 -2.52463 -1.44329e-15 1.32533e-15 -1.249e-16 -5.24645 
19 2.95 1.70318 1.1715 1.3687 1.37225 1.28585 3.88578e-16 -3.51065e-14 8.38088e-17 -5.24645 
20 7.375 9.36751 1.1715 -2.7744 -0.212783 -0.426464 -2.17187e-15 5.09315e-15 -6.93889e-17 -5.24645 
21 2.95 1.70318 5.8575 -5.32738 2.88573 -1.03065 -4.996e-16 -3.51602e-14 3.19189e-16 -5.24645 
22 7.375 9.36751 5.8575 1.70243 0.0195405 -3.36118 2.6229e-15 5.59275e-15 2.35922e-16 -5.24645 
23 2.95 1.70318 10.5435 1.18275 -1.97644 -1.35027 1.11022e-16 -2.59844e-14 2.70617e-16 -5.24645 
24 7.375 9.36751 10.5435 -1.52333 0.271247 1.48496 -1.61676e-15 1.20737e-15 2.35922e-16 -5.24645 
25 1.475 4.25796 1.1715 1.32709 5.02178 -0.326486 1.20043e-15 7.50788e-15 -1.80411e-16 -5.24645 
26 5.9 11.9223 1.1715 0.250521 4.81631 1.61135 1.88738e-15 -3.33622e-14 9.4369e-16 -5.24645 
27 1.475 4.25796 5.8575 -1.59045 -0.766079 1.04677 -8.32667e-17 6.97359e-15 2.08167e-16 -5.24645 
28 5.9 11.9223 5.8575 4.49671 -1.31817 0.0120632 8.04912e-16 -3.28695e-14 1.30451e-15 -5.24645 
29 1.475 4.25796 10.5435 1.07054 -0.758399 1.80574 9.4022e-16 6.54338e-15 9.71445e-17 -5.24645 
30 5.9 11.9223 10.5435 0.798837 -1.94326 0.655869 1.11022e-16 -2.34049e-14 -7.35523e-16 -5.24645 
31 3.87606e-17 6.81273 1.1715 0.891439 1.33773 -1.86946 -5.55112e-16 -3.13638e-14 -4.996e-16 -5.24645 
32 4.425 14.4771 1.1715 -0.745072 -0.478234 -1.52683 5.55112e-17 1.09751e-14 -2.09251e-16 -5.24645 
33 3.30185e-16 6.81273 5.8575 -0.823054 1.86484 0.310609 -1.88738e-15 -3.07809e-14 7.49401e-16 -5.24645 
34 4.425 14.4771 5.8575 1.26783 0.530866 -1.53705 -1.249e-15 9.37835e-15 -5.42752e-16 -5.24645 
35 2.33563e-16 6.81273 10.5435 -0.841776 0.357288 -0.722471 -1.11022e-15 -3.12528e-14 -2.77556e-17 -5.24645 
36 4.425 14.4771 10.5435 1.61449 -2.09703 -0.534229 3.19189e-16 1.46107e-15 2.34405e-16 -5.24645 
37 5.9 1.70318 1.1715 3.17474 0.822708 2.74533 3.05311e-16 -3.87468e-14 -2.77556e-16 -5.24645 
38 1.475 9.36751 1.1715 3.61078 -4.25979 2.05121 1.19349e-15 6.38378e-15 4.16334e-17 -5.24645 
39 5.9 1.70318 5.8575 2.46919 -3.23543 4.13885 -1.11022e-16 -3.75672e-14 -3.46945e-16 -5.24645 
40 1.475 9.36751 5.8575 -0.723669 -1.43928 -2.44771 -2.15973e-15 4.996e-15 4.57967e-16 -5.24645 
41 5.9 1.70318 10.5435 -0.467422 -2.70524 -4.66729 -4.16334e-16 -2.59237e-14 7.63278e-16 -5.24645 
42 1.475 9.36751 10.5435 2.1832 -0.446292 -2.40776 2.24647e-15 3.25434e-15 -2.35922e-16 -5.24645 
43 4.425 4.25796 1.1715 -1.56601 -2.78601 -1.02083 -8.74301e-16 8.07319e-15 -2.87097e-16 -5.24645 
44 0 11.9223 1.1715 3.35138 -3.12949 -0.347801 -5.55112e-16 -3.33067e-14 -4.71845e-16 -5.24645 
45 4.425 4.25796 5.8575 -0.992022 2.2528 -4.11582 -1.26288e-15 7.97886e-15 1.15728e-15 -5.24645 
46 0 11.9223 5.8575 2.27247 0.966957 3.77132 -2.22045e-16 -3.26406e-14 2.77556e-17 -5.24645 
47 4.425 4.25796 10.5435 0.929856 -0.172809 -0.120422 4.30211e-16 5.1196e-15 -4.2826e-16 -5.24645 
48 0 11.9223 10.5435 2.53694 -1.77175 3.15445 -8.88178e-16 -2.29816e-14 -2.498e-16 -5.24645 
49 2.95 6.81273 1.1715 -2.09226 -2.09102 -0.835619 8.32667e-16 -3.12944e-14 -3.3285e-16 -5.24645 
50 7.375 14.4771 1.1715 0.395401 -0.929928 1.42168 -2.09555e-15 1.02973e-14 8.46545e-16 -5.24645 
51 2.95 6.81273 5.8575 1.1501 -3.96314 -0.272098 1.41553e-15 -3.0905e-14 3.38488e-16 -5.24645 
52 7.375 14.4771 5.8575 -3.6603 3.56824 1.42761 2.81719e-15 1.01863e-14 -4.30211e-16 -5.24645 
53 2.95 6.81273 10.5435 1.97176 -2.75646 2.24948 -1.7486e-15 -3.05658e-14 -4.23056e-16 -5.24645 
54 7.375 14.4771 10.5435 -3.23769 -1.36163 -1.31393 2.51188e-15 -1.16573e-15 -9.71445e-17 -5.24645 
55 1.475 0.851592 3.5145 -2.28416 -4.97732 2.82083 -1.60982e-15 -7.86871e-15 1.08247e-15 -5.24645 
56 5.9 8.51592 3.5145 -2.44881 0.258104 -1.65079 7.00828e-16 3.26614e-14 -2.01228e-15 -5.24645 
57 1.475 0.851592 8.2005 2.69084 -3.36668 -5.45942 -2.19269e-15 -5.73153e-15 3.88578e-16 -5.24645 
58 5.9 8.51592 8.2005 1.09298 1.05884 -3.71069 2.26902e-15 3.19259e-14 5.6205e-16 -5.24645 
59 1.475 0.851592 12.8865 0.392509 5.30134 0.466625 -8.60423e-16 -7.27196e-15 4.44089e-16 -5.24645 
60 5.9 8.51592 12.8865 -0.788318 -0.549585 -1.26722 1.63064e-15 3.05589e-14 2.35922e-16 -5.24645 
61 0 3.40637 3.5145 -0.667393 0.378909 2.59523 2.77556e-16 3.29459e-14 2.77556e-16 -5.24645 
62 4.425 11.0707 3.5145 2.78963 -0.487528 -2.56281 -1.66533e-16 -8.27398e-15 -6.5269e-17 -5.24645 
63 0 3.40637 8.2005 -1.29518 0.042586 1.22393 1.16573e-15 3.2585e-14 4.16334e-16 -5.24645 
64 4.425 11.0707 8.2005 -1.49427 -1.98521 0.608163 9.4369e-16 -4.64754e-15 -2.06649e-16 -5.24645 
65 0 3.40637 12.8865 -2.5186 1.86457 -2.51733 5.55112e-16 3.15165e-14 4.16334e-17 -5.24645 
66 4.425 11.0707 12.8865 2.34951 2.2268 0.316118 -1.45717e-15 -8.12479e-15 2.11419e-16 -5.24645 
67 7.375 5.96114 3.5145 0.628749 -2.19948 1.81963 -1.6237e-15 -8.95117e-15 9.71445e-16 -5.24645 
68 2.95 13.6255 3.5145 0.989854 -1.16741 -2.13288 -1.66533e-15 3.35183e-14 -7.97973e-17 -5.24645 
69 7.375 5.96114 8.2005 0.0306276 -4.58889 0.277875 -1.20737e-15 -9.11771e-15 -2.22045e-16 -5.24645 
70 2.95 13.6255 8.2005 -0.802067 1.72185 -4.37285 9.29812e-16 3.182e-14 -5.06539e-16 -5.24645 
71 7.375 5.96114 12.8865 -1.15587 -1.1969 -0.765877 -2.34535e-15 -5.00988e-15 -5.27356e-16 -5.24645 
72 2.95 13.6255 12.8865 3.52924 3.61038 -0.481621 -1.83187e-15 3.27915e-14 8.22259e-16 -5.24645 
73 4.425 0.851592 3.5145 -2.30855 -1.00825 -1.53334 3.747e-16 -6.60073e-15 -5.01444e-16 -5.24645 
74 0 8.51592 3.5145 -0.752565 1.67236 2.00905 -4.44089e-16 3.15754e-14 6.10623e-16 -5.24645 
75 4.425 0.851592 8.2005 -1.00057 -6.62792 1.26957 -1.15186e-15 -5.69531e-15 -3.58437e-16 -5.24645 
76 7.53617e-18 8.51592 8.2005 1.46523 -0.472809 -1.32249 6.66134e-16 3.10203e-14 -7.21645e-16 -5.24645 
77 4.425 0.851592 12.8865 0.851878 3.47857 1.90798 5.13478e-16 -6.91081e-15 1.16638e-15 -5.24645 
78 5.0256e-17 8.51592 12.8865 -0.800064 0.633051 -1.52297 -5.55112e-16 3.16865e-14 1.38778e-16 -5.24645 
79 2.95 3.40637 3.5145 0.719821 3.67244 0.844813 3.05311e-16 3.33605e-14 -3.66027e-16 -5.24645 
80 7.375 11.0707 3.5145 -2.67051 4.19869 -1.28462 -2.1233e-15 -7.02216e-15 1.94289e-16 -5.24645 
81 2.95 3.40637 8.2005 3.71039 0.55029 -3.03186 -5.68989e-16 3.34229e-14 6.40113e-16 -5.24645 
82 7.375 11.0707 8.2005 -0.728586 -0.715872 -1.02946 -3.21965e-15 -5.13478e-15 -1.08247e-15 -5.24645 
83 2.95 3.40637 12.8865 0.775278 -2.21885 -0.240002 6.80012e-16 3.3076e-14 -5.58581e-16 -5.24645 
84 7.375 11.0707 12.8865 -2.10525 -1.11149 2.61248 2.26208e-15 -7.16094e-15 9.4369e-16 -5.24645 
85 1.475 5.96114 3.5145 0.565212 0.852536 0.729432 -8.60423e-16 -8.34055e-15 -1.11022e-16 -5.24645 
86 5.9 13.6255 3.5145 0.988722 -0.470368 -4.78018 2.11636e-15 3.38965e-14 -6.38378e-16 -5.24645 
87 1.475 5.96114 8.2005 -0.482879 0.882108 0.318037 6.21898e-16 -5.55112e-15 1.38778e-16 -5.24645 
88 5.9 13.6255 8.2005 2.71023 -1.36842 0.734314 1.02696e-15 2.26347e-14 2.98372e-16 -5.24645 
89 1.475 5.96114 12.8865 1.44766 -2.03989 -0.776726 -8.11851e-16 -8.38218e-15 4.996e-16 -5.24645 
90 5.9 13.6255 12.8865 1.16034 1.3771 2.42514 1.73472e-15 3.34871e-14 -4.44089e-16 -5.24645 
91 7.375 0.851592 3.5145 7.88917 -1.71292 -1.57166 1.1241e-15 -7.27196e-15 4.996e-16 -5.24645 
92 2.95 8.51592 3.5145 -1.79138 -0.312029 -0.963589 9.29812e-16 3.21097e-14 -2.86229e-16 -5.24645 
93 7.375 0.851592 8.2005 1.27002 2.16488 3.74285 3.57353e-15 -6.91114e-15 -1.38778e-16 -5.24645 
94 2.95 8.51592 8.2005 1.21262 1.00031 3.10918 -2.33147e-15 3.13794e-14 1.9082e-17 -5.24645 
95 7.375 0.851592 12.8865 1.20707 -1.4177 -4.19854 -1.70697e-15 -6.39766e-15 1.249e-15 -5.24645 
96 2.95 8.51592 12.8865 -1.39877 2.4572 4.06273 6.38378e-16 3.20438e-14 2.35922e-16 -5.24645 
97 5.9 3.40637 3.5145 -7.0127 0.62761 1.0014 1.38778e-17 3.27585e-14 -1.1588e-15 -5.24645 
98 1.475 11.0707 3.5145 3.60852 -0.059547 -2.06863 7.35523e-16 -6.52256e-15 -8.32667e-17 -5.24645 
99 5.9 3.40637 8.2005 0.177924 -2.53029 0.586886 -3.51802e-15 3.55063e-14 1.08941e-15 -5.24645 
100 1.475 11.0707 8.2005 2.88166 0.34103 1.01703 5.13261e-16 -8.14626e-15 -2.498e-16 -5.24645 
101 5.9 3.40637 12.8865 -1.14537 -0.694192 1.41367 3.747e-16 3.35149e-14 -4.85723e-16 -5.24645 
102 1.475 11.0707 12.8865 -0.0899694 -4.0065 -0.414039 -4.85939e-16 -6.52256e-15 2.22045e-16 -5.24645 
103 4.425 5.96114 3.5145 -0.329286 2.56698 -1.21095 8.88178e-16 -8.51999e-15 -2.00035e-16 -5.24645 
104 0 13.6255 3.5145 -2.56953 4.60704 -2.28926 -5.55112e-16 3.52461e-14 1.38778e-16 -5.24645 
105 4.425 5.96114 8.2005 -2.01414 2.12361 1.54433 8.74301e-16 -9.92067e-15 4.16117e-16 -5.24645 
106 0 13.6255 8.2005 -3.02552 2.05965 0.377895 -6.10623e-16 3.36935e-14 8.04912e-16 -5.24645 
107 4.425 5.96114 12.8865 -3.407 2.19093 -2.32849 1.06859e-15 -8.61626e-15 -1.14709e-16 -5.24645 
108 0 13.6255 12.8865 0.171959 0.483799 4.62626 -1.66533e-16 3.23352e-14 -1.4988e-15 -5.24645 
ITEM: TIMESTEP
1000
ITEM: NUMBER OF ATOMS
108
ITEM: BOX BOUNDS pp pp pp
0.0000000000000000e+00 8.8499999999999996e+00
0.0000000000000000e+00 1.5328649000000000e+01
0.0000000000000000e+00 1.4058000000000000e+01
ITEM: ATOMS id x y z vx vy vz fx fy fz c_apE 
1 0.02659 1.6645 1.17393 0.59822 -3.27173 0.639606 -0.441737 0.468913 -0.0605951 -5.09601 
2 4.52193 9.42095 1.0903 1.32795 1.8769 -3.34703 0.061595 -0.262495 0.320949 -5.21914 
3 0.0987224 1.75648 6.01948 1.54919 -2.56205 1.63 -0.29766 0.250757 -0.703942 -5.22696 
4 4.42176 9.39654 5.89794 0.0751436 2.09761 -3.83591 0.396853 -0.36437 -0.437256 -5.00893 
5 0.00948272 1.8269 10.5154 -1.46637 -2.59097 -1.8773 -0.20136 -0.798796 0.0170726 -5.19373 
6 4.40431 9.26686 10.4531 3.80249 -3.81114 3.6803 0.0790922 0.134474 -0.000820206 -5.23 
7 7.35646 4.31448 1.07026 -2.16728 -1.74381 1.25366 0.24966 -0.205852 0.396808 -5.20045 
8 2.82232 11.7748 1.2038 -0.0013491 2.4293 1.4847 -0.188415 0.776806 0.0130793 -5.22334 
9 7.45139 4.38616 6.00936 1.34751 0.0488525 -4.4355 0.345068 -0.726589 -0.931858 -5.162 
10 2.86968 12.1077 5.82083 -7.81128 5.69624 -3.86538 -0.0982178 -0.381589 -0.0585017 -5.14742 
11 7.34908 4.16689 10.6117 -0.94694 -3.48451 -2.50406 -0.326817 0.125809 -0.293148 -5.22902 
12 3.09621 11.807 10.4353 -4.34926 -2.64339 0.145175 -0.796637 0.296142 -0.234358 -5.1653 
13 5.93708 6.94869 1.21596 0.516878 0.128044 -0.995684 -0.0870651 -0.252965 -0.264137 -5.20944 
14 1.2835 14.6035 1.31255 -0.382999 0.393076 -0.221362 0.954092 -0.820374 -0.730709 -5.13533 
15 5.94728 6.69844 5.73559 2.86666 -1.2152 -1.79623 -0.207325 0.230604 0.169869 -5.18147 
16 1.42736 14.5879 6.05843 0.00345528 4.69187 0.0362546 -0.101084 -0.385678 -0.681037 -5.18954 
17 5.90041 6.96192 10.6352 0.0865305 -0.503337 1.2672 -0.0679945 -0.886717 0.0354347 -5.15595 
18 1.40939 14.3677 10.4692 1.69541 -4.85564 -7.75511 0.165057 0.386373 0.379873 -5.2099 
19 2.81008 1.9205 1.32302 2.07036 0.809976 -2.50968 0.729074 -0.720686 -0.792429 -5.12377 
20 7.52434 9.31567 1.31546 1.66299 1.2539 1.74189 -0.278238 0.505428 -0.433867 -5.17454 
21 2.97562 1.69587 5.92661 -0.662028 0.56095 -1.02005 0.140877 0.347928 -0.373876 -5.24057 
22 7.18862 9.38515 5.92843 -0.936925 -1.04716 -0.704506 1.02285 0.10934 -0.356965 -5.21355 
23 2.96879 1.6269 10.5884 -3.52992 0.344882 0.821048 -0.258134 0.14941 0.00691927 -5.21814 
24 7.39249 9.41549 10.4373 -2.6024 2.73027 3.77079 0.00424281 0.148689 0.64776 -5.13252 
25 1.51712 4.34207 1.14878 1.39163 3.53648 4.85111 -0.149096 0.309871 -0.113066 -5.28789 
26 5.84782 11.8946 1.23891 3.22876 -2.90275 0.168988 0.00500331 -0.365131 -0.790129 -5.06902 
27 1.68435 4.28454 5.82068 1.02384 -1.95435 -3.12626 -0.695529 0.0937685 -0.0629805 -5.30094 
28 5.69057 11.968 5.8958 1.50044 -0.289077 1.65466 1.14068 0.423246 -0.208712 -5.21204 
29 1.41511 4.18366 10.6367 0.0497287 -0.907752 -1.89557 0.324653 0.35219 -0.112875 -5.15133 
30 5.75326 11.8859 10.5213 0.0331059 3.15494 -1.03931 0.95932 0.0876421 -0.191197 -5.19709 
31 8.68864 7.00465 1.29052 -2.92543 -0.49805 -3.99351 1.04625 -0.863991 -0.555038 -5.0983 
32 4.49894 14.213 1.30438 0.495351 -6.52878 0.0105937 -1.07767 0.950402 -0.973561 -5.15907 
33 0.0103057 6.80214 5.85212 -2.51017 2.89973 -4.36313 0.215951 -0.111072 0.15519 -5.21027 
34 4.42085 14.5348 5.87803 3.41861 2.40682 0.81444 0.17212 -0.0575906 -0.13546 -5.22877 
35 8.68577 6.87583 10.561 -0.471581 0.575977 4.49232 0.655831 -0.393234 0.287664 -5.1778 
36 4.42685 14.4888 10.3959 6.98763 -1.92156 -1.8765 -0.346957 -0.328763 0.627687 -5.10057 
37 5.89759 1.56602 0.933392 -5.47525 -0.761207 0.687351 -0.365677 0.359979 1.30709 -5.20031 
38 1.67429 9.32225 1.08427 0.0710907 -0.0969916 -0.286661 -0.839586 0.329074 0.610008 -5.1651 
39 5.94388 1.79969 5.65851 1.58787 1.33365 -2.89976 0.0625469 -0.295004 0.809168 -5.19939 
40 1.79382 9.1515 5.87046 0.773801 -4.07215 0.832239 -1.4513 0.818341 0.108805 -5.02227 
41 5.78892 1.38335 10.7212 -0.573923 -3.67553 -0.899152 0.566576 1.34393 -0.494489 -5.11825 
42 1.48455 9.35665 10.5202 2.43424 2.0591 -2.65603 0.0639368 -0.25971 -0.187979 -5.21885 
43 4.57706 4.27833 1.19259 -1.9074 1.80893 1.84996 -0.41292 0.171031 -0.219969 -5.16404 
44 8.75248 11.9299 1.28137 2.34638 3.91993 -3.66221 0.660948 -0.126063 -0.542606 -5.21496 
45 4.60014 4.35507 5.71287 1.07781 -2.84533 -4.56097 -0.482897 -0.472026 0.442539 -5.11919 
46 0.00932564 11.8434 5.97689 1.70024 2.92056 0.736826 -0.493398 0.12056 -0.398254 -5.29501 
47 4.47143 4.14347 10.4842 2.78944 2.71399 3.39862 -0.00497657 0.213242 0.200287 -5.16203 
48 0.0931126 11.6957 10.4211 -3.45269 0.145961 -3.81196 -0.551378 0.798996 0.406937 -5.19398 
49 3.03947 6.83924 1.0577 -2.10949 0.212654 3.96821 -0.258535 -0.0820774 0.25629 -5.23077 
50 7.30387 14.4547 1.06058 -3.67274 3.79111 4.95061 0.181499 0.129915 0.101368 -5.19215 
51 3.02522 6.76781 5.79765 1.75 5.32105 -2.996 -0.138088 -0.459669 0.459856 -5.20166 
52 7.45382 14.478 5.91138 -1.64378 -0.915773 -0.812159 -0.52888 -0.0317243 -0.144227 -5.24288 
53 2.9096 6.72201 10.5588 -1.6562 -3.71073 -4.30868 0.0258786 0.245694 -0.100439 -5.22754 
54 7.3923 14.5005 10.6232 -0.826564 3.15684 -0.240072 0.207582 -0.36475 -0.23024 -5.18078 
55 1.45706 0.815069 3.45688 -2.21473 4.07698 0.959747 0.127091 0.328267 0.84955 -5.1424 
56 5.89368 8.61634 3.63728 1.63759 -1.60758 -0.311535 0.12824 -0.387939 -0.57746 -5.25011 
57 1.60551 0.775528 8.30777 -9.46389 2.01103 1.21415 -0.539951 0.437994 -0.0498974 -5.16854 
58 6.08969 8.27046 8.16044 1.19478 -7.96152 0.328718 -0.980287 0.479083 -0.0625263 -5.11067 
59 1.40671 0.907614 12.9716 -1.52167 3.01106 -0.011479 0.420167 -0.248463 -0.479694 -5.25991 
60 5.9046 8.69726 12.8399 2.63325 0.987777 -0.81416 0.467709 -0.356255 0.417571 -5.25968 
61 0.0487055 3.41371 3.39601 -3.66581 0.335082 3.94679 -0.0370668 0.361364 0.882638 -5.32155 
62 4.35827 11.1222 3.49688 0.498108 1.01818 1.88854 -0.274319 -0.129752 0.181711 -5.22417 
63 0.107915 3.50973 8.27275 -1.30362 0.991561 1.70741 -0.092179 -0.407369 -0.310305 -5.16098 
64 4.44112 10.9269 8.00621 -1.84292 -0.105531 -1.34863 0.06787 0.75334 1.07457 -5.13709 
65 8.84639 3.41448 12.8617 3.78725 1.64167 -2.83589 0.28047 0.0871566 0.295997 -5.1632 
66 4.20707 11.2177 12.782 -2.42553 -0.948964 5.71407 0.720988 -0.416996 0.389659 -5.09249 
67 7.49207 6.00166 3.50555 2.35865 2.79433 0.394909 -0.604596 -0.338507 -0.0558683 -5.21312 
68 2.73786 13.6187 3.52596 -2.84612 0.937265 -3.30366 0.282211 0.0280366 0.114101 -5.22112 
69 7.31243 5.88467 8.26758 2.67416 -1.96373 1.38986 0.247252 -0.170604 -0.0928852 -5.11209 
70 2.96077 13.5286 8.19998 2.80954 -1.29025 1.64381 -0.0845191 0.00601438 -0.0526507 -5.21808 
71 7.4912 5.84649 12.9382 1.24083 1.74705 -4.03748 -0.205903 0.824366 -0.0145768 -5.17832 
72 2.89644 13.5754 12.8505 4.09769 -1.60782 9.22128 -0.110424 0.609074 0.417533 -5.23909 
73 4.39427 0.689355 3.57766 -2.70426 0.409854 -3.27213 0.136274 0.557553 -0.591431 -5.2047 
74 0.0624233 8.54474 3.75108 0.60089 2.32488 5.59826 -0.422173 0.418374 -0.571526 -5.15229 
75 4.43919 0.800702 8.18511 1.52482 -0.743856 1.88077 0.19983 0.540315 -0.323693 -5.18589 
76 8.83047 8.36745 8.21651 0.107651 -1.1333 1.55728 0.49559 0.520109 -0.533423 -5.20107 
77 4.31067 0.820835 13.021 -5.34398 1.8193 0.498101 -0.101126 -0.260871 -0.0730352 -5.23934 
78 0.10646 8.5032 12.9165 4.2344 1.33358 3.62286 -0.757284 0.184259 -0.140783 -5.26092 
79 3.12224 3.36998 3.4577 2.16064 0.215924 3.72774 -0.677474 0.335497 0.396283 -5.1315 
80 7.28068 11.1509 3.43544 -2.21817 1.94813 0.724458 0.309309 -0.37888 0.865895 -5.1486 
81 2.99967 3.49757 8.2622 -1.09308 -3.64432 3.08 -0.030392 -0.493813 -0.346558 -5.20126 
82 7.22085 10.9389 8.23403 -2.51804 2.82135 0.86629 0.481459 0.673192 -0.193154 -5.17354 
83 3.06232 3.57453 12.8184 -0.67467 3.84453 1.9015 -0.495491 -0.615064 0.436842 -5.24327 
84 7.31605 11.081 12.9443 1.94996 0.978528 -5.42259 0.275859 -0.126379 -0.362953 -5.3069 
85 1.47571 6.17608 3.44516 -0.222929 -0.0620017 0.27681 0.141496 -0.96573 -0.0138595 -5.17146 
86 5.8231 13.5441 3.40586 1.05782 -3.50797 -1.39922 0.245435 0.614458 1.25709 -5.07887 
87 1.43656 5.98843 8.36327 -2.95158 5.43205 -2.55687 0.30147 -0.0424997 -0.655676 -5.23217 
88 5.98559 13.7302 8.24047 1.57981 2.86989 -2.94359 -0.140781 -0.638672 -0.203775 -5.2016 
89 1.53464 6.09973 12.7967 0.57692 -0.651574 -1.19924 -0.187764 -0.407706 0.533729 -5.21661 
90 5.84843 13.4981 12.7565 2.77533 -4.11453 1.77751 0.265788 0.578965 0.442237 -5.2264 
91 7.35417 0.911159 3.55437 8.58486 -0.264574 3.51611 -0.118277 -0.126136 -0.186974 -5.2283 
92 2.925 8.66885 3.51558 -0.692097 -0.735969 -1.20286 0.289712 -0.448087 -0.709091 -5.1643 
93 7.38628 1.00258 8.15904 7.36073 -1.38303 -1.06274 0.0344665 -0.363147 0.360046 -5.29848 
94 3.01622 8.46879 8.12782 2.31485 -8.17785 1.07276 -0.130033 -0.495399 0.768632 -5.18822 
95 7.33437 0.876533 12.8793 2.90088 0.651463 4.29506 0.143177 -0.3676 -0.199474 -5.15881 
96 2.99926 8.56822 12.8502 -2.57695 -5.0153 -1.50372 0.0718687 -0.186591 -0.0665564 -5.15675 
97 5.86039 3.40453 3.39301 0.62002 -1.95159 -0.683371 0.564741 0.0699274 0.178457 -5.17364 
98 1.31926 11.0977 3.59046 -0.606029 0.533739 4.55201 0.129984 0.0231974 -0.0841542 -5.23487 
99 5.83082 3.44976 8.13309 0.485304 -5.82513 0.731366 0.34524 -0.652051 0.344975 -5.19575 
100 1.47587 10.9167 8.04458 4.39213 -1.55029 -1.02229 -0.29629 0.393952 0.434444 -5.23812 
101 5.82391 3.48146 12.8534 -1.18769 -3.51824 -0.0559772 0.191258 -0.43514 0.0410395 -5.11856 
102 1.44377 11.0744 12.8029 -3.68232 -1.73969 -1.86618 -0.431667 0.0317998 0.369145 -5.15691 
103 4.33847 6.05795 3.39426 -4.9081 3.76138 1.47902 0.496287 -0.0242399 0.0580447 -5.20047 
104 8.65091 13.7427 3.57852 -0.116215 -0.82467 0.789066 0.469103 -0.408219 0.274172 -5.1806 
105 4.40594 5.861 8.3166 -1.54522 3.06763 1.28401 -0.124749 0.306289 -0.498235 -5.22657 
106 8.78196 13.5349 8.35348 0.706745 -4.09102 -2.77593 0.100824 0.126826 -0.325749 -5.17446 
107 4.60453 6.05183 12.7751 -1.25023 3.14296 2.35087 -0.394626 -0.0617034 0.467356 -5.22959 
108 0.0986746 13.5771 12.8473 -5.47057 5.50246 -0.952477 -0.483459 0.00277127 -0.0217004 -5.23495 
ITEM: TIMESTEP
2000
ITEM: NUMBER OF ATOMS
108
ITEM: BOX BOUNDS pp pp pp
-1.1871716673228505e-02 8.8618717166732424e+00
-2.0562415583229132e-02 1.5349211415583232e+01
-1.8857920112117732e-02 1.4076857920112099e+01
ITEM: ATOMS id x y z vx vy vz fx fy fz c_apE 
1 0.368547 1.87386 1.22583 4.43473 2.24219 -2.51405 -1.08322 -0.263638 -0.154646 -5.11622 
2 4.31576 9.18804 1.13689 -3.35077 -2.10195 0.323078 0.603365 1.09035 0.344965 -5.12353 
3 0.0621546 1.88828 5.78966 1.61653 2.96636 -1.30298 -0.540945 -1.04549 0.798587 -5.06137 
4 4.41812 9.35106 5.76233 -0.00796784 -3.7564 3.70953 0.326475 0.136347 0.370972 -5.30853 
5 0.148354 1.50096 10.4331 0.094783 1.31043 0.874197 -0.580493 0.570477 0.407005 -5.1963 
6 4.39101 9.33306 10.5714 3.91483 0.197247 3.53049 0.170192 -0.155346 0.0844989 -5.20659 
7 7.41798 4.20582 1.16818 0.70906 0.13333 0.229673 -0.162443 -0.108604 -0.0070121 -5.25924 
8 3.06815 11.8892 1.11534 -2.90192 5.0387 -2.4808 -0.902171 0.280584 -0.532436 -5.19283 
9 7.24552 4.13241 5.88378 0.765937 -1.89977 1.61994 0.057866 0.559628 0.228529 -5.24122 
10 3.0597 12.0945 5.89904 -3.90407 -3.36178 2.43141 -0.462699 -0.547761 0.323087 -5.23177 
11 7.17639 4.13398 10.521 1.00071 1.36181 -2.00862 1.14512 0.0638269 0.516081 -5.19179 
12 2.94084 11.8103 10.613 -3.4958 -0.502048 -3.52882 -0.121878 0.200481 -0.0598669 -5.09639 
13 5.83941 6.68301 1.2755 4.52368 -1.2833 3.44306 0.821547 0.697852 -0.133356 -5.16143 
14 1.27609 14.6158 1.15142 -3.48962 1.09147 5.81679 0.851233 -0.657414 -0.127951 -5.23094 
15 6.22743 6.88599 5.63575 -2.66641 -0.392478 3.45739 -1.58574 -0.233221 0.859311 -5.06251 
16 1.50795 14.7093 5.83658 4.46794 1.3487 1.98162 -0.036425 -0.636265 0.269389 -5.19654 
17 5.90786 6.63402 10.6083 2.32024 0.678305 -2.77103 0.0161357 0.683454 0.144591 -5.16397 
18 1.30511 14.3892 10.6426 4.19271 5.48035 -1.38965 0.491587 0.288765 -0.534185 -5.08687 
19 3.07252 1.79955 1.06893 -4.39553 -1.66378 9.21119 -0.667659 -0.699151 0.389956 -5.05597 
20 7.2503 9.52458 0.800005 0.594331 -1.46143 2.11105 0.0732659 -0.619036 1.16356 -5.10618 
21 3.01266 1.87269 5.88609 0.679676 2.53331 -1.10276 0.189178 -0.438068 0.109118 -5.13184 
22 7.36711 9.31771 5.89106 0.161814 -2.7137 0.164463 -0.0340178 0.872861 -0.334276 -5.18139 
23 3.12979 1.48141 10.5767 -3.31803 2.85798 3.32763 -0.390219 0.143935 -0.00187508 -5.24882 
24 7.36358 9.39328 10.5726 2.69506 -2.98511 -2.68278 0.011607 0.0209714 0.228429 -5.25016 
25 1.5026 4.40726 1.16459 -4.28351 1.20889 0.95269 -1.31438 -0.35883 0.156137 -5.1382 
26 5.91123 12.0856 1.17747 -0.141654 -1.09445 2.53371 0.200584 -0.138642 -0.0633065 -5.09 
27 1.35048 4.20536 5.91743 -3.00918 0.278297 -0.359561 0.361832 0.998103 0.0306449 -5.19076 
28 5.88365 11.9551 5.65872 -3.95258 -3.4274 -6.43528 0.414194 -0.359843 0.866538 -5.16859 
29 1.6842 4.09696 10.356 -0.188146 -2.20895 -3.30581 -1.34049 0.601562 0.723545 -5.16358 
30 5.77288 11.8916 10.6111 0.908672 -6.57846 -0.194034 0.604033 -0.0981872 0.0867071 -5.13032 
31 8.8132 6.80193 1.07667 1.2907 6.6853 -2.61563 -0.172421 0.240601 0.339153 -5.18115 
32 4.2913 14.4988 1.23576 2.87052 -1.99651 1.07874 0.226499 0.221508 -0.268243 -5.24488 
33 8.75126 6.89505 5.99237 3.07694 0.325923 5.78568 0.945346 -0.5968 -0.716118 -5.07646 
34 4.47459 14.5473 5.77784 -2.55729 -3.20396 1.11565 -0.118978 -0.122137 0.622318 -5.18427 
35 8.71391 6.87648 10.3565 -0.341694 0.31127 1.96976 0.548284 -0.71888 1.0269 -5.17626 
36 4.37446 14.2281 10.6051 -2.25962 1.83982 -0.234199 0.26172 1.04287 -0.338389 -5.14897 
37 5.75895 1.78528 1.20257 2.49722 0.0140301 -3.02522 0.925826 -0.270489 0.178855 -5.17932 
38 1.32019 9.2701 1.13842 -1.241 -1.95349 -1.78713 0.136186 0.718034 -0.197176 -5.17003 
39 5.8251 1.58319 5.81713 -0.456656 4.32418 1.73784 0.352606 0.331689 0.0846556 -5.17971 
40 1.46389 9.43696 5.66745 3.04548 -1.72717 2.88033 0.0149921 -0.0615037 0.76961 -5.23578 
41 5.86437 1.66058 10.6327 -0.808799 -1.63314 3.63039 0.409168 -0.479759 0.00273589 -5.17784 
42 1.52705 9.36679 10.5313 2.06824 0.94506 0.0194809 -0.217677 -0.33258 0.147147 -5.24012 
43 4.10321 4.36421 1.25261 0.0368322 -0.270436 -0.737622 1.52328 -0.681335 0.482609 -4.95865 
44 0.0122479 11.8058 1.20999 -1.10782 -5.80566 2.67869 0.227072 0.715006 -0.0900364 -5.22588 
45 4.39521 4.38394 5.93533 -2.18108 1.4447 -5.82826 0.376901 -0.362111 -0.332228 -5.17134 
46 0.102102 11.9954 5.82877 -0.170227 4.26359 -2.47908 -0.388848 -0.5493 -0.11763 -5.25157 
47 4.29023 4.27363 10.578 -1.64955 -1.26869 3.10845 0.48586 -0.259753 -0.0132165 -5.03852 
48 8.78933 12.0027 10.3293 0.684053 -4.6054 2.59459 0.136097 -0.592183 1.03107 -5.13014 
49 2.93766 6.89247 1.32553 1.55967 3.57142 2.02384 -0.72774 0.0504456 -0.26725 -5.01818 
50 7.41024 14.7503 1.31961 -2.59462 -0.504538 -2.96786 -0.0678636 -0.427409 -0.511839 -5.22512 
51 3.08168 6.6887 5.83211 1.31795 -4.5631 -1.62151 -0.329989 0.461725 -0.0133425 -5.17029 
52 7.42047 14.4799 5.81729 -4.06889 5.08798 -1.80962 -0.0516299 0.217501 0.090559 -5.24947 
53 3.05554 6.86123 10.5262 -1.08226 2.31699 4.51961 -0.670563 -0.146687 -0.0863717 -5.26795 
54 7.31951 14.4253 10.5017 0.253048 -0.358697 -2.80313 -0.0327685 0.23624 0.291413 -5.26437 
55 1.50726 0.82416 3.54506 -0.137742 -3.00903 -0.823981 0.0829125 0.12604 -0.215683 -5.15691 
56 5.95493 8.61913 3.31296 4.19325 -1.97492 2.90778 -0.208129 0.110217 0.422856 -5.28245 
57 1.69045 0.761044 8.11023 -3.80466 3.0242 -2.79456 -0.671081 -0.0805681 0.43175 -5.18903 
58 5.92328 8.42035 8.30113 1.29482 -5.56127 0.270595 -0.211541 0.108096 -0.507821 -5.28685 
59 1.48144 0.944497 12.8415 1.81143 0.933741 0.30232 0.0472777 -0.342994 0.12876 -5.20065 
60 5.84509 8.41358 12.8598 -0.944572 -0.894045 2.30522 0.167288 0.444378 -0.00728131 -5.15562 
61 8.78742 3.37899 3.61959 -2.50816 -0.444746 -4.33556 0.33794 0.808758 -0.735493 -5.09268 
62 4.2953 11.2151 3.40873 0.443682 -2.56556 -2.71964 0.757048 -0.921516 0.0929594 -5.05674 
63 0.0572324 3.34205 8.20229 -0.600028 1.83268 -0.937301 -0.391754 0.27086 0.287514 -5.19061 
64 4.49488 11.1243 8.26176 0.41906 -1.57714 0.989293 -0.335097 -0.670924 -0.657041 -5.21131 
65 8.7303 3.37903 12.8686 -2.69491 1.25186 1.20923 0.318463 0.337203 -0.374538 -5.3117 
66 4.5811 11.1679 13.0731 -2.86023 1.64238 0.931797 -0.627137 -0.563988 -0.531266 -5.18792 
67 7.33005 5.93672 3.47562 4.8929 0.574943 0.773895 0.440514 -0.066052 -0.0557076 -5.15315 
68 2.96391 13.6204 3.58119 1.44319 0.223381 0.964274 -0.35828 0.463269 -0.511803 -5.12009 
69 7.3742 5.74679 8.26548 -3.37548 -2.23271 -0.0935467 -0.0907056 0.157091 -0.419135 -5.13309 
70 2.67677 13.6261 8.33479 2.4814 2.63412 3.71081 1.09712 0.0608442 -0.426468 -5.178 
71 7.33653 6.0712 13.1017 -2.75455 0.713611 1.58874 0.183138 -0.63628 -0.973683 -5.14334 
72 2.98572 13.7908 12.7963 1.23522 -1.75814 -5.68865 -0.169239 -0.498608 0.80838 -5.169 
73 4.23074 0.963858 3.53368 -4.50374 1.50055 0.686618 0.751005 -0.326081 -0.145682 -5.17111 
74 8.78156 8.6422 3.39945 -1.65353 4.48894 -1.96194 -0.310367 0.0643569 0.0504262 -5.25543 
75 4.59274 0.632967 8.17168 -0.985884 -2.46424 2.14648 -0.409916 -0.245437 0.225052 -5.19316 
76 0.0119711 8.4045 8.16502 -7.25453 6.95547 -7.48897 0.0491866 0.732773 0.121332 -5.08106 
77 4.55534 0.881373 13.0123 0.145393 0.788308 4.17912 -0.292865 -0.313876 -0.508048 -5.11657 
78 8.78845 8.55212 12.8722 1.61223 5.82403 -2.50817 0.5704 -0.0466995 -0.259316 -5.1875 
79 2.87476 3.48414 3.56744 6.55797 2.36725 -3.22891 0.030846 0.0682162 0.237914 -5.27097 
80 7.23407 11.3206 3.47064 -4.24765 -0.812306 -3.70334 0.812509 -1.05985 0.00139077 -5.16539 
81 2.98036 3.34214 8.24365 9.84634 -1.0733 2.36513 -0.00958428 0.038538 -0.423861 -5.10723 
82 7.43171 10.9898 8.25954 5.42552 -1.54732 5.48174 -0.234517 -0.121893 -0.65425 -5.15049 
83 2.95219 3.46926 12.9438 0.736372 -2.69186 -2.67601 -0.715699 -0.603996 -0.81823 -5.11436 
84 7.40254 11.2663 12.9458 1.45664 0.971789 1.6877 0.292224 -0.331991 -0.725096 -5.13136 
85 1.37726 6.11987 3.58283 4.65603 -0.621658 -2.75107 -0.253021 -0.664431 0.416966 -5.3087 
86 5.83712 13.7474 3.44608 -0.277391 5.09274 0.699682 0.519769 0.548959 0.13943 -5.15805 
87 1.45969 6.15904 8.10221 1.08171 -1.31051 1.55117 0.449586 -1.15484 0.395304 -5.11211 
88 5.91308 13.3358 8.15481 0.0780417 -0.238489 2.58237 -0.225568 1.06711 -0.156822 -5.1696 
89 1.45902 5.94687 12.7999 0.533044 3.18781 -1.48697 -0.63078 0.189285 -0.308161 -5.32586 
90 5.86941 13.7229 12.9873 -2.54418 -3.65943 -0.657718 0.613142 0.0805448 -0.00168157 -5.19974 
91 7.53128 0.978781 3.5824 4.53873 -0.610141 -1.70488 -0.79985 -0.575049 -0.509573 -5.17974 
92 2.81558 8.55083 3.54175 -4.59396 0.711738 0.632512 0.623236 -0.0539693 0.182716 -5.12535 
93 7.47231 0.823897 8.17221 0.363865 -1.26532 -0.12827 -0.00860572 -0.508117 0.0115844 -5.28567 
94 3.01956 8.35042 8.01387 -2.29511 -1.25871 -4.19636 0.139845 0.622044 0.404277 -5.19058 
95 7.43964 0.822643 12.9972 0.508278 -3.18028 -3.77198 0.0919036 0.14257 -0.22463 -5.28574 
96 3.10707 8.39831 13.095 1.59324 3.22742 -2.09976 -0.901012 0.764559 -1.2792 -5.1492 
97 5.91952 3.29123 3.52069 -4.60632 -0.282706 0.757266 -0.380714 0.436881 -0.0112906 -5.24094 